

     ************************************************************************
     *************** Dalton - An Electronic Structure Program ***************
     ************************************************************************

    This is output from DALTON release Dalton2020.0 (2020)
         ( Web site: http://daltonprogram.org )

   ----------------------------------------------------------------------------

    NOTE:
     
    Dalton is an experimental code for the evaluation of molecular
    properties using (MC)SCF, DFT, CI, and CC wave functions.
    The authors accept no responsibility for the performance of
    the code or for the correctness of the results.
     
    The code (in whole or part) is provided under a licence and
    is not to be reproduced for further distribution without
    the written permission of the authors or their representatives.
     
    See the home page "http://daltonprogram.org" for further information.
     
    If results obtained with this code are published,
    the appropriate citations would be both of:
     
       K. Aidas, C. Angeli, K. L. Bak, V. Bakken, R. Bast,
       L. Boman, O. Christiansen, R. Cimiraglia, S. Coriani,
       P. Dahle, E. K. Dalskov, U. Ekstroem,
       T. Enevoldsen, J. J. Eriksen, P. Ettenhuber, B. Fernandez,
       L. Ferrighi, H. Fliegl, L. Frediani, K. Hald, A. Halkier,
       C. Haettig, H. Heiberg, T. Helgaker, A. C. Hennum,
       H. Hettema, E. Hjertenaes, S. Hoest, I.-M. Hoeyvik,
       M. F. Iozzi, B. Jansik, H. J. Aa. Jensen, D. Jonsson,
       P. Joergensen, J. Kauczor, S. Kirpekar,
       T. Kjaergaard, W. Klopper, S. Knecht, R. Kobayashi, H. Koch,
       J. Kongsted, A. Krapp, K. Kristensen, A. Ligabue,
       O. B. Lutnaes, J. I. Melo, K. V. Mikkelsen, R. H. Myhre,
       C. Neiss, C. B. Nielsen, P. Norman, J. Olsen,
       J. M. H. Olsen, A. Osted, M. J. Packer, F. Pawlowski,
       T. B. Pedersen, P. F. Provasi, S. Reine, Z. Rinkevicius,
       T. A. Ruden, K. Ruud, V. Rybkin, P. Salek, C. C. M. Samson,
       A. Sanchez de Meras, T. Saue, S. P. A. Sauer,
       B. Schimmelpfennig, K. Sneskov, A. H. Steindal,
       K. O. Sylvester-Hvid, P. R. Taylor, A. M. Teale,
       E. I. Tellgren, D. P. Tew, A. J. Thorvaldsen, L. Thoegersen,
       O. Vahtras, M. A. Watson, D. J. D. Wilson, M. Ziolkowski
       and H. Agren,
       "The Dalton quantum chemistry program system",
       WIREs Comput. Mol. Sci. 2014, 4:269–284 (doi: 10.1002/wcms.1172)
     
    and
     
       Dalton, a molecular electronic structure program,
       Release Dalton2020.0 (2020), see http://daltonprogram.org
   ----------------------------------------------------------------------------

    Authors in alphabetical order (Major contribution(s) in parenthesis):

  Kestutis Aidas,           Vilnius University,           Lithuania   (QM/MM)
  Celestino Angeli,         University of Ferrara,        Italy       (NEVPT2)
  Keld L. Bak,              UNI-C,                        Denmark     (AOSOPPA, non-adiabatic coupling, magnetic properties)
  Vebjoern Bakken,          University of Oslo,           Norway      (DALTON; geometry optimizer, symmetry detection)
  Radovan Bast,             UiT The Arctic U. of Norway,  Norway      (DALTON installation and execution frameworks)
  Pablo Baudin,             University of Valencia,       Spain       (Cholesky excitation energies)
  Linus Boman,              NTNU,                         Norway      (Cholesky decomposition and subsystems)
  Bruno N. Cabral Tenorio,  Technical Univ. of Denmark,   Denmark     (Lanczos-based CC methods)
  Ove Christiansen,         Aarhus University,            Denmark     (CC module)
  Renzo Cimiraglia,         University of Ferrara,        Italy       (NEVPT2)
  Sonia Coriani,            Technical Univ. of Denmark,   Denmark     (CC and RESPONS modules)
  Janusz Cukras,            University of Warsaw,         Poland      (MChD in RESPONS)
  Paal Dahle,               University of Oslo,           Norway      (Parallelization)
  Erik K. Dalskov,          UNI-C,                        Denmark     (SOPPA)
  Thomas Enevoldsen,        Univ. of Southern Denmark,    Denmark     (SOPPA)
  Janus J. Eriksen,         Aarhus University,            Denmark     (Polarizable embedding, TDA)
  Rasmus Faber,             Technical Univ. of Denmark,   Denmark     (Vib.avg. NMR w. SOPPA, parallel AO-SOPPA, CVS-CC and EOMCC)
  Tobias Fahleson,          KTH Stockholm,                Sweden      (Damped cubic response)
  Berta Fernandez,          U. of Santiago de Compostela, Spain       (Doublet spin, ESR in RESPONS)
  Lara Ferrighi,            Aarhus University,            Denmark     (PCM Cubic response)
  Heike Fliegl,             University of Oslo,           Norway      (CCSD(R12))
  Luca Frediani,            UiT The Arctic U. of Norway,  Norway      (PCM)
  Emmanuel Fromager,        Univ. Strasbourg,             France      (MC-srDFT)
  Bin Gao,                  UiT The Arctic U. of Norway,  Norway      (Gen1Int library)
  Andre S. P. Gomes,        CNRS/Universite de Lille,     France      (Frozen density embedding)
  Christof Haettig,         Ruhr-University Bochum,       Germany     (CC module)
  Kasper Hald,              Aarhus University,            Denmark     (CC module)
  Asger Halkier,            Aarhus University,            Denmark     (CC module)
  Frederik Beyer Hansen,    University of Copenhagen,     Denmark     (Parallel AO-SOPPA)
  Erik D. Hedegaard,        Univ. of Southern Denmark,    Denmark     (Polarizable embedding, QM/MM, and MC-srDFT)
  Hanne Heiberg,            University of Oslo,           Norway      (Geometry analysis, selected one-electron integrals)
  Trygve Helgaker,          University of Oslo,           Norway      (DALTON; ABACUS, ERI, DFT modules, London, and much more)
  Alf Christian Hennum,     University of Oslo,           Norway      (Parity violation)
  Hinne Hettema,            University of Auckland,       New Zealand (Quadratic response in RESPONS; SIRIUS supersymmetry)
  Eirik Hjertenaes,         NTNU,                         Norway      (Cholesky decomposition)
  Pi A. B. Haase,           University of Copenhagen,     Denmark     (Triplet AO-SOPPA)
  Maria Francesca Iozzi,    University of Oslo,           Norway      (RPA)
  Christoph Jacob           TU Braunschweig               Germany     (Frozen density embedding)
  Brano Jansik              Technical Univ. of Ostrava    Czech Rep.  (DFT cubic response)
  Hans Joergen Aa. Jensen,  Univ. of Southern Denmark,    Denmark     (DALTON; SIRIUS, RESPONS, ABACUS, MC-srDFT, and much more)
  Dan Jonsson,              UiT The Arctic U. of Norway,  Norway      (Cubic response in RESPONS module)
  Poul Joergensen,          Aarhus University,            Denmark     (RESPONS, ABACUS, and CC modules)
  Maciej Kaminski,          University of Warsaw,         Poland      (CPPh in RESPONS)
  Joanna Kauczor,           Linkoeping University,        Sweden      (Complex polarization propagator (CPP) module)
  Sheela Kirpekar,          Univ. of Southern Denmark,    Denmark     (Mass-velocity & Darwin integrals)
  Erik Kjellgren,           Univ. of Southern Denmark,    Denmark     (MC-srDFT)
  Wim Klopper,              KIT Karlsruhe,                Germany     (R12 code in CC, SIRIUS, and ABACUS modules)
  Stefan Knecht,            ETH Zurich,                   Switzerland (Parallel CI and MCSCF, MC-srDFT)
  Rika Kobayashi,           Australian National Univ.,    Australia   (DIIS in CC, London in MCSCF)
  Henrik Koch,              NTNU,                         Norway      (CC module, Cholesky decomposition)
  Jacob Kongsted,           Univ. of Southern Denmark,    Denmark     (Polarizable embedding, polarizable density embedding, QM/MM)
  Andrea Ligabue,           University of Modena,         Italy       (CTOCD, AOSOPPA)
  Nanna H. List             Univ. of Southern Denmark,    Denmark     (Polarizable embedding)
  Ola B. Lutnaes,           University of Oslo,           Norway      (DFT Hessian)
  Juan I. Melo,             University of Buenos Aires,   Argentina   (LRESC, Relativistic Effects on NMR Shieldings)
  Kurt V. Mikkelsen,        University of Copenhagen,     Denmark     (MC-SCRF and QM/MM)
  Rolf H. Myhre,            NTNU,                         Norway      (Subsystems and CC3)
  Christian Neiss,          Univ. Erlangen-Nuernberg,     Germany     (CCSD(R12))
  Christian B. Nielsen,     University of Copenhagen,     Denmark     (QM/MM)
  Patrick Norman,           KTH Stockholm,                Sweden      (Cubic response and complex frequency response in RESPONS)
  Jeppe Olsen,              Aarhus University,            Denmark     (SIRIUS CI/density modules)
  Jogvan Magnus H. Olsen,   Aarhus University,            Denmark     (Polarizable embedding and polarizable density embedding)
  Anders Osted,             Copenhagen University,        Denmark     (QM/MM)
  Martin J. Packer,         University of Sheffield,      UK          (SOPPA)
  Filip Pawlowski,          Kazimierz Wielki University,  Poland      (CC3)
  Morten N. Pedersen,       Univ. of Southern Denmark,    Denmark     (Polarizable embedding)
  Thomas B. Pedersen,       University of Oslo,           Norway      (Cholesky decomposition)
  Patricio F. Provasi,      University of Northeastern,   Argentina   (Analysis of coupling constants in localized orbitals)
  Peter Reinholdt,          Univ. of Southern Denmark,    Denmark     (Polarizable embedding and polarizable density embedding)
  Zilvinas Rinkevicius,     KTH Stockholm,                Sweden      (open-shell DFT, ESR)
  Elias Rudberg,            KTH Stockholm,                Sweden      (DFT grid and basis info)
  Torgeir A. Ruden,         University of Oslo,           Norway      (Numerical derivatives in ABACUS)
  Kenneth Ruud,             UiT The Arctic U. of Norway,  Norway      (DALTON; ABACUS magnetic properties and much more)
  Pawel Salek,              KTH Stockholm,                Sweden      (DALTON; DFT code)
  Claire C. M. Samson       University of Karlsruhe       Germany     (Boys localization, r12 integrals in ERI)
  Alfredo Sanchez de Meras, University of Valencia,       Spain       (CC module, Cholesky decomposition)
  Trond Saue,               Paul Sabatier University,     France      (direct Fock matrix construction)
  Stephan P. A. Sauer,      University of Copenhagen,     Denmark     (SOPPA(CCSD), SOPPA prop., AOSOPPA, vibrational g-factors)
  Bernd Schimmelpfennig,    Forschungszentrum Karlsruhe,  Germany     (AMFI module)
  Anna K. Schnack-Petersen, University of Copenhagen,     Denmark     (RPA(D) and HRPA(D) properties in AOSOPPA)
  Kristian Sneskov,         Aarhus University,            Denmark     (Polarizable embedding, QM/MM)
  Arnfinn H. Steindal,      UiT The Arctic U. of Norway,  Norway      (parallel QM/MM, polarizable embedding)
  Casper Steinmann,         Aalborg University,           Denmark     (QFIT, polarizable embedding)
  K. O. Sylvester-Hvid,     University of Copenhagen,     Denmark     (MC-SCRF)
  Peter R. Taylor,          VLSCI/Univ. of Melbourne,     Australia   (Symmetry handling ABACUS, integral transformation)
  Andrew M. Teale,          University of Nottingham,     England     (DFT-AC, DFT-D)
  David P. Tew,             University of Bristol,        England     (CCSD(R12))
  Julien Toulouse,          Sorbonne Univ.,               France      (MC-srDFT)
  Olav Vahtras,             KTH Stockholm,                Sweden      (Triplet response, spin-orbit, ESR, TDDFT, open-shell DFT)
  Lucas Visscher,           Vrije Universiteit Amsterdam, Netherlands (Frozen density embedding)
  David J. Wilson,          La Trobe University,          Australia   (DFT Hessian and DFT magnetizabilities)
  Hans Agren,               KTH Stockholm,                Sweden      (SIRIUS module, RESPONS, MC-SCRF solvation)
 --------------------------------------------------------------------------------

     Date and time (Linux)  : Wed Jan 11 15:39:26 2023
     Host name              : cn016                                   

 * Work memory size             :    64000000 =  488.28 megabytes.

 * Directories for basis set searches:
   1) /gpfs/projects/rjh/adrian/fd_compare/dalton/hf/CO/dipole
   2) /gpfs/projects/rjh/adrian/dalton/build/basis


Compilation information
-----------------------

 Who compiled             | ahurtado
 Host                     | sn-mem
 System                   | Linux-3.10.0-1160.24.1.el7.x86_64
 CMake generator          | Unix Makefiles
 Processor                | x86_64
 64-bit integers          | OFF
 MPI                      | ON
 Fortran compiler         | /gpfs/software/intel/oneAPI/2021_4/mpi/2021.4.0/bi
                          | n/mpif90
 Fortran compiler version | GNU Fortran (GCC) 11.2.0
 C compiler               | /gpfs/software/intel/oneAPI/2021_4/mpi/2021.4.0/bi
                          | n/mpicc
 C compiler version       | gcc (GCC) 11.2.0
 C++ compiler             | /gpfs/software/intel/oneAPI/2021_4/mpi/2021.4.0/bi
                          | n/mpicxx
 C++ compiler version     | unknown
 BLAS                     | /gpfs/software/intel/oneAPI/2021_4/mkl/2021.4.0/li
                          | b/intel64/libmkl_gf_lp64.so;/gpfs/software/intel/o
                          | neAPI/2021_4/mkl/2021.4.0/lib/intel64/libmkl_seque
                          | ntial.so;/gpfs/software/intel/oneAPI/2021_4/mkl/20
                          | 21.4.0/lib/intel64/libmkl_core.so;/usr/lib64/libpt
                          | hread.so;/usr/lib64/libm.so
 LAPACK                   | /gpfs/software/intel/oneAPI/2021_4/mkl/2021.4.0/li
                          | b/intel64/libmkl_lapack95_lp64.a;/gpfs/software/in
                          | tel/oneAPI/2021_4/mkl/2021.4.0/lib/intel64/libmkl_
                          | gf_lp64.so
 Static linking           | OFF
 Last Git revision        | 66052b3af5ea7225e31178bf9a8b031913c72190
 Git branch               | (HEAD detached at Dalton2020.0)
 Configuration time       | 2023-01-11 13:33:37.731835

 * MPI parallel run using 20 processes.


   Content of the .dal input file
 ----------------------------------

**DALTON INPUT
.RUN RESPONSE
.DIRECT
**WAVE FUNCTIONS
.HF
**RESPONSE
*LINEAR
.DIPLEN
.FREQUENCIES
9
0.0 0.0201593125 0.040318625 0.060477937499999995 0.08063725 0.10079656249999999 0.12095587499999999
**END OF DALTON INPUT


   Content of the .mol file
 ----------------------------

BASIS
d-aug-cc-pCVTZ
blah
blah
Atomtype=2 Atomic
Charge=6 Atoms=1
C_a 0.000000000000 0.000000000000 0.000000000000
Charge=8 Atoms=1
O_a 0.000000000000 0.000000000000 2.132000000000


       *******************************************************************
       *********** Output from DALTON general input processing ***********
       *******************************************************************

 --------------------------------------------------------------------------------
   Overall default print level:    0
   Print level for DALTON.STAT:    1

    Parallel calculation using MPI
    AO-direct calculation (in sections where implemented)
    HERMIT 1- and 2-electron integral sections will be executed
    "Old" integral transformation used (limited to max 255 basis functions)
    Wave function sections will be executed (SIRIUS module)
    Dynamic molecular response properties section will be executed (RESPONSE module)
 --------------------------------------------------------------------------------


   ****************************************************************************
   *************** Output of molecule and basis set information ***************
   ****************************************************************************


    The two title cards from your ".mol" input:
    ------------------------------------------------------------------------
 1: blah                                                                    
 2: blah                                                                    
    ------------------------------------------------------------------------

  Atomic type no.    1
  --------------------
  Nuclear charge:   6.00000
  Number of symmetry independent centers:    1
  Number of basis sets to read;    2
  Basis set file used for this atomic type with Z =   6 :
     "/gpfs/projects/rjh/adrian/dalton/build/basis/aug-cc-pCVTZ"

  Atomic type no.    2
  --------------------
  Nuclear charge:   8.00000
  Number of symmetry independent centers:    1
  Number of basis sets to read;    2
  Basis set file used for this atomic type with Z =   8 :
     "/gpfs/projects/rjh/adrian/dalton/build/basis/aug-cc-pCVTZ"


                      SYMADD: Requested addition of symmetry
                      --------------------------------------

 Symmetry test threshold:  5.00E-06

@   The molecule is centered at center of mass and rotated
@   so principal axes of inertia are along coordinate axes.

 Symmetry class found: C(oo,v)        

 Symmetry Independent Centres             
 ----------------------------
O_a    8 :      0.00000000     0.00000000     0.91388025  Isotope  1
C_a    6 :      0.00000000     0.00000000    -1.21811975  Isotope  1

 The following symmetry elements were found:   X  Y     


                         SYMGRP: Point group information
                         -------------------------------

@    Full point group is: C(oo,v)        
@    Represented as:      C2v

@  * The irrep name for each symmetry:    1: A1     2: B1     3: B2     4: A2 

   * The point group was generated by:

      Reflection in the yz-plane
      Reflection in the xz-plane

   * Group multiplication table

        |  E   C2z  Oxz  Oyz
   -----+--------------------
     E  |  E   C2z  Oxz  Oyz
    C2z | C2z   E   Oyz  Oxz
    Oxz | Oxz  Oyz   E   C2z
    Oyz | Oyz  Oxz  C2z   E 

   * Character table

        |  E   C2z  Oxz  Oyz
   -----+--------------------
    A1  |   1    1    1    1
    B1  |   1   -1    1   -1
    B2  |   1   -1   -1    1
    A2  |   1    1   -1   -1

   * Direct product table

        | A1   B1   B2   A2 
   -----+--------------------
    A1  | A1   B1   B2   A2 
    B1  | B1   A1   A2   B2 
    B2  | B2   A2   A1   B1 
    A2  | A2   B2   B1   A1 


                                 Isotopic Masses
                                 ---------------

                           C_a        12.000000
                           O_a        15.994915

                       Total mass:    27.994915 amu
                       Natural abundance:  98.663 %

 Center-of-mass coordinates (a.u.):    0.000000    0.000000    0.000000
 Center-of-mass coordinates (Angs):    0.000000    0.000000    0.000000


  Atoms and basis sets
  --------------------

  Number of atom types :    2
  Total number of atoms:    2

  Basis set used is "d-aug-cc-pCVTZ" from the basis set library.

  label    atoms   charge   prim   cont     basis
  ----------------------------------------------------------------------
  C_          1    6.0000    87    75      [14s9p5d3f|8s7p5d3f]                               
  O_          1    8.0000    87    75      [14s9p5d3f|8s7p5d3f]                               
  ----------------------------------------------------------------------
  total:      2   14.0000   174   150
  ----------------------------------------------------------------------
  Spherical harmonic basis used.

  Threshold for neglecting AO integrals:  1.00D-12


  Cartesian Coordinates (a.u.)
  ----------------------------

  Total number of coordinates:    6
  C_a     :     1  x   0.0000000000    2  y   0.0000000000    3  z  -1.2181197471
  O_a     :     4  x   0.0000000000    5  y   0.0000000000    6  z   0.9138802529


  Symmetry Coordinates
  --------------------

  Number of coordinates in each symmetry:     2    2    2    0

  Symmetry  A1  ( 1)

    1   C_a   z    3
    2   O_a   z    6

  Symmetry  B1  ( 2)

    3   C_a   x    1
    4   O_a   x    4

  Symmetry  B2  ( 3)

    5   C_a   y    2
    6   O_a   y    5


   Interatomic separations (in Angstrom):
   --------------------------------------

            C_a         O_a   
            ------      ------
 C_a   :    0.000000
 O_a   :    1.128206    0.000000


  Max    interatomic separation is    1.1282 Angstrom (    2.1320 Bohr)
  between atoms    2 and    1, "O_a   " and "C_a   ".

  Min YX interatomic separation is    1.1282 Angstrom (    2.1320 Bohr)


  Bond distances (Angstrom):
  --------------------------

                  atom 1     atom 2       distance
                  ------     ------       --------
  bond distance:  O_a        C_a          1.128206




 Principal moments of inertia (u*A**2) and principal axes
 --------------------------------------------------------

   IA       0.000000          0.000000    0.000000    1.000000
   IB       8.726914          0.000000    1.000000    0.000000
   IC       8.726914          1.000000    0.000000    0.000000


 Rotational constants
 --------------------

@    The molecule is linear.

               B =        57910.39 MHz     (    1.931683 cm-1)


@  Nuclear repulsion energy :   22.514071294559 Hartree


  Symmetry Orbitals
  -----------------

  Number of orbitals in each symmetry:          62   36   36   16


  Symmetry  A1 ( 1)

    1     C_a      1s         1
    2     C_a      1s         2
    3     C_a      1s         3
    4     C_a      1s         4
    5     C_a      1s         5
    6     C_a      1s         6
    7     C_a      1s         7
    8     C_a      1s         8
    9     C_a      2pz       11
   10     C_a      2pz       14
   11     C_a      2pz       17
   12     C_a      2pz       20
   13     C_a      2pz       23
   14     C_a      2pz       26
   15     C_a      2pz       29
   16     C_a      3d0       32
   17     C_a      3d2+      34
   18     C_a      3d0       37
   19     C_a      3d2+      39
   20     C_a      3d0       42
   21     C_a      3d2+      44
   22     C_a      3d0       47
   23     C_a      3d2+      49
   24     C_a      3d0       52
   25     C_a      3d2+      54
   26     C_a      4f0       58
   27     C_a      4f2+      60
   28     C_a      4f0       65
   29     C_a      4f2+      67
   30     C_a      4f0       72
   31     C_a      4f2+      74
   32     O_a      1s        76
   33     O_a      1s        77
   34     O_a      1s        78
   35     O_a      1s        79
   36     O_a      1s        80
   37     O_a      1s        81
   38     O_a      1s        82
   39     O_a      1s        83
   40     O_a      2pz       86
   41     O_a      2pz       89
   42     O_a      2pz       92
   43     O_a      2pz       95
   44     O_a      2pz       98
   45     O_a      2pz      101
   46     O_a      2pz      104
   47     O_a      3d0      107
   48     O_a      3d2+     109
   49     O_a      3d0      112
   50     O_a      3d2+     114
   51     O_a      3d0      117
   52     O_a      3d2+     119
   53     O_a      3d0      122
   54     O_a      3d2+     124
   55     O_a      3d0      127
   56     O_a      3d2+     129
   57     O_a      4f0      133
   58     O_a      4f2+     135
   59     O_a      4f0      140
   60     O_a      4f2+     142
   61     O_a      4f0      147
   62     O_a      4f2+     149


  Symmetry  B1 ( 2)

   63     C_a      2px        9
   64     C_a      2px       12
   65     C_a      2px       15
   66     C_a      2px       18
   67     C_a      2px       21
   68     C_a      2px       24
   69     C_a      2px       27
   70     C_a      3d1+      33
   71     C_a      3d1+      38
   72     C_a      3d1+      43
   73     C_a      3d1+      48
   74     C_a      3d1+      53
   75     C_a      4f1+      59
   76     C_a      4f3+      61
   77     C_a      4f1+      66
   78     C_a      4f3+      68
   79     C_a      4f1+      73
   80     C_a      4f3+      75
   81     O_a      2px       84
   82     O_a      2px       87
   83     O_a      2px       90
   84     O_a      2px       93
   85     O_a      2px       96
   86     O_a      2px       99
   87     O_a      2px      102
   88     O_a      3d1+     108
   89     O_a      3d1+     113
   90     O_a      3d1+     118
   91     O_a      3d1+     123
   92     O_a      3d1+     128
   93     O_a      4f1+     134
   94     O_a      4f3+     136
   95     O_a      4f1+     141
   96     O_a      4f3+     143
   97     O_a      4f1+     148
   98     O_a      4f3+     150


  Symmetry  B2 ( 3)

   99     C_a      2py       10
  100     C_a      2py       13
  101     C_a      2py       16
  102     C_a      2py       19
  103     C_a      2py       22
  104     C_a      2py       25
  105     C_a      2py       28
  106     C_a      3d1-      31
  107     C_a      3d1-      36
  108     C_a      3d1-      41
  109     C_a      3d1-      46
  110     C_a      3d1-      51
  111     C_a      4f3-      55
  112     C_a      4f1-      57
  113     C_a      4f3-      62
  114     C_a      4f1-      64
  115     C_a      4f3-      69
  116     C_a      4f1-      71
  117     O_a      2py       85
  118     O_a      2py       88
  119     O_a      2py       91
  120     O_a      2py       94
  121     O_a      2py       97
  122     O_a      2py      100
  123     O_a      2py      103
  124     O_a      3d1-     106
  125     O_a      3d1-     111
  126     O_a      3d1-     116
  127     O_a      3d1-     121
  128     O_a      3d1-     126
  129     O_a      4f3-     130
  130     O_a      4f1-     132
  131     O_a      4f3-     137
  132     O_a      4f1-     139
  133     O_a      4f3-     144
  134     O_a      4f1-     146


  Symmetry  A2 ( 4)

  135     C_a      3d2-      30
  136     C_a      3d2-      35
  137     C_a      3d2-      40
  138     C_a      3d2-      45
  139     C_a      3d2-      50
  140     C_a      4f2-      56
  141     C_a      4f2-      63
  142     C_a      4f2-      70
  143     O_a      3d2-     105
  144     O_a      3d2-     110
  145     O_a      3d2-     115
  146     O_a      3d2-     120
  147     O_a      3d2-     125
  148     O_a      4f2-     131
  149     O_a      4f2-     138
  150     O_a      4f2-     145

  Symmetries of electric field:  B1 (2)  B2 (3)  A1 (1)

  Symmetries of magnetic field:  B2 (3)  B1 (2)  A2 (4)


                     .---------------------------------------.
                     | Starting in Integral Section (HERMIT) |
                     `---------------------------------------'



 ***************************************************************************************
 ****************** Output from **INTEGRALS input processing (HERMIT) ******************
 ***************************************************************************************


 - Using defaults, no **INTEGRALS input found

 Default print level:        1

 Calculation of one-electron Hamiltonian integrals.

 Center of mass  (bohr):      0.000000000000      0.000000000000      0.000000000000
 Operator center (bohr):      0.000000000000      0.000000000000      0.000000000000
 Gauge origin    (bohr):      0.000000000000      0.000000000000      0.000000000000
 Dipole origin   (bohr):      0.000000000000      0.000000000000      0.000000000000


     ************************************************************************
     ************************** Output from HERINT **************************
     ************************************************************************



                      Nuclear contribution to dipole moments
                      --------------------------------------

                 au               Debye          C m (/(10**-30)

      z      0.00232354         0.00590585         0.01969980


  Time used in GABGEN     is       0.14 seconds
  Total CPU  time used in HERMIT:   0.29 seconds
  Total wall time used in HERMIT:   0.30 seconds


                        .----------------------------------.
                        | End of Integral Section (HERMIT) |
                        `----------------------------------'



                   .--------------------------------------------.
                   | Starting in Wave Function Section (SIRIUS) |
                   `--------------------------------------------'


 *** Output from Huckel module :

     Using EWMO model:          T
     Using EHT  model:          F
     Number of Huckel orbitals each symmetry:    6    2    2    0

 EWMO - Energy Weighted Maximum Overlap - is a Huckel type method,
        which normally is better than Extended Huckel Theory.
 Reference: Linderberg and Ohrn, Propagators in Quantum Chemistry (Wiley, 1973)

 Huckel EWMO eigenvalues for symmetry :  1
          -20.685999     -11.349525      -1.578830      -0.796795      -0.456115
           -0.137637

 Huckel EWMO eigenvalues for symmetry :  2
           -0.717188      -0.305912

 Huckel EWMO eigenvalues for symmetry :  3
           -0.717188      -0.305912

 **********************************************************************
 *SIRIUS* a direct, restricted step, second order MCSCF program       *
 **********************************************************************

 
     Date and time (Linux)  : Wed Jan 11 15:39:26 2023
     Host name              : cn016                                   

 Title lines from ".mol" input file:
     blah                                                                    
     blah                                                                    

 Print level on unit LUPRI =   2 is   0
 Print level on unit LUW4  =   2 is   5

@    Restricted, closed shell Hartree-Fock calculation.

@    Time-dependent Hartree-Fock calculation (random phase approximation).
 Fock matrices are calculated directly and in parallel without use of integrals on disk.

 Initial molecular orbitals are obtained according to
 ".MOSTART EWMO  " input option

     Wave function specification
     ============================
@    Wave function type        --- HF ---
@    Number of closed shell electrons          14
@    Number of electrons in active shells       0
@    Total charge of the molecule               0

@    Spin multiplicity and 2 M_S                1         0
@    Total number of symmetries                 4 (point group: C2v)
@    Reference state symmetry                   1 (irrep name : A1 )

     Orbital specifications
     ======================
@    Abelian symmetry species          All |    1    2    3    4
@                                          |  A1   B1   B2   A2 
                                       --- |  ---  ---  ---  ---
@    Total number of orbitals          150 |   62   36   36   16
@    Number of basis functions         150 |   62   36   36   16

      ** Automatic occupation of RHF orbitals **

      -- Initial occupation of symmetries is determined from extended Huckel guess.           
      -- Initial occupation of symmetries is :
@    Occupied SCF orbitals               7 |    5    1    1    0

     Maximum number of Fock   iterations      0
     Maximum number of DIIS   iterations     60
     Maximum number of QC-SCF iterations     60
     Threshold for SCF convergence     1.00D-05


 ***********************************************
 ***** DIIS acceleration of SCF iterations *****
 ***********************************************

 C1-DIIS algorithm; max error vectors =    8

 Automatic occupation of symmetries with  14 electrons.

 Iter     Total energy    Error norm  Delta(E)    SCF occupation
 -----------------------------------------------------------------------------
   1  Screening settings (-IFTHRS, JTDIIS, DIFDEN, times)   -7    1    T  2.65D-01  2.65D-01
@  1  -112.497120289       2.62D+00  -1.12D+02     5   1   1   0
      Virial theorem: -V/T =      2.005922
@    MULPOP   C_a     0.26; O_a    -0.26; 
   1  Level shift: doubly occupied orbital energies shifted by -2.00D-01
 -----------------------------------------------------------------------------
   2  Screening settings (-IFTHRS, JTDIIS, DIFDEN, times)   -7    2    T  2.42D-01  2.41D-01
@  2  -112.768012841       5.36D-01  -2.71D-01     5   1   1   0
      Virial theorem: -V/T =      1.998455
@    MULPOP   C_a     0.31; O_a    -0.31; 
   2  Level shift: doubly occupied orbital energies shifted by -5.00D-02
 -----------------------------------------------------------------------------
   3  Screening settings (-IFTHRS, JTDIIS, DIFDEN, times)  -11    3    F  2.15D-01  2.15D-01
@  3  -112.780801541       1.29D-01  -1.28D-02     5   1   1   0
      Virial theorem: -V/T =      2.000951
@    MULPOP   C_a     0.33; O_a    -0.33; 
   3  Level shift: doubly occupied orbital energies shifted by -1.25D-02
 -----------------------------------------------------------------------------
   4  Screening settings (-IFTHRS, JTDIIS, DIFDEN, times)  -11    4    T  2.10D-01  2.10D-01
@  4  -112.782010984       6.30D-02  -1.21D-03     5   1   1   0
      Virial theorem: -V/T =      2.001907
@    MULPOP   C_a     0.30; O_a    -0.30; 
 -----------------------------------------------------------------------------
   5  Screening settings (-IFTHRS, JTDIIS, DIFDEN, times)  -11    5    T  2.17D-01  2.17D-01
@  5  -112.782205683       2.06D-02  -1.95D-04     5   1   1   0
      Virial theorem: -V/T =      2.001247
@    MULPOP   C_a     0.31; O_a    -0.31; 
 -----------------------------------------------------------------------------
   6  Screening settings (-IFTHRS, JTDIIS, DIFDEN, times)  -11    6    T  2.19D-01  2.19D-01
@  6  -112.782230276       3.11D-03  -2.46D-05     5   1   1   0
      Virial theorem: -V/T =      2.001417
@    MULPOP   C_a     0.31; O_a    -0.31; 
 -----------------------------------------------------------------------------
   7  Screening settings (-IFTHRS, JTDIIS, DIFDEN, times)  -11    7    T  2.14D-01  2.14D-01
@  7  -112.782231129       5.16D-04  -8.53D-07     5   1   1   0
      Virial theorem: -V/T =      2.001425
@    MULPOP   C_a     0.31; O_a    -0.31; 
 -----------------------------------------------------------------------------
   8  Screening settings (-IFTHRS, JTDIIS, DIFDEN, times)  -11    8    T  2.12D-01  2.12D-01
@  8  -112.782231157       1.18D-04  -2.73D-08     5   1   1   0
      Virial theorem: -V/T =      2.001427
@    MULPOP   C_a     0.31; O_a    -0.31; 
 -----------------------------------------------------------------------------
   9  Screening settings (-IFTHRS, JTDIIS, DIFDEN, times)  -11    9    T  2.13D-01  2.13D-01
@  9  -112.782231158       1.23D-05  -1.42D-09     5   1   1   0
      Virial theorem: -V/T =      2.001427
@    MULPOP   C_a     0.31; O_a    -0.31; 
 -----------------------------------------------------------------------------
  10  Screening settings (-IFTHRS, JTDIIS, DIFDEN, times)  -11   10    T  2.11D-01  2.12D-01
@ 10  -112.782231158       3.13D-06  -2.31D-11     5   1   1   0

@ *** DIIS converged in  10 iterations !
@     Converged SCF energy, gradient:   -112.782231157994    3.13D-06
    - total time used in SIRFCK :              0.00 seconds


 *** SCF orbital energy analysis ***

 Only the 20 lowest virtual orbital energies printed in each symmetry.

 Number of electrons :   14
 Orbital occupations :    5    1    1    0

 Sym       Hartree-Fock orbital energies

1 A1    -20.66688238   -11.36131182    -1.52281364    -0.80488799    -0.55490639
          0.01747149     0.02179305     0.05445701     0.07382168     0.09656063
          0.10701959     0.13580881     0.19313912     0.24360430     0.25520062
          0.31011774     0.36722529     0.37014621     0.44362522     0.49371221
          0.51738240     0.68062193     0.75042267     0.82874384     0.83762086

2 B1     -0.64037825     0.02048727     0.05444198     0.08685562     0.13422162
          0.16208925     0.25323650     0.33288986     0.38845392     0.41589562
          0.53147211     0.67180115     0.83918884     0.84057227     1.14859268
          1.19409469     1.27621072     1.47980591     1.61945892     2.41153692
          2.43173223

3 B2     -0.64037825     0.02048727     0.05444198     0.08685562     0.13422162
          0.16208925     0.25323650     0.33288986     0.38845392     0.41589562
          0.53147211     0.67180115     0.83918884     0.84057227     1.14859268
          1.19409469     1.27621072     1.47980591     1.61945892     2.41153692
          2.43173223

4 A2      0.09656063     0.25520062     0.37014621     0.49371221     0.82874384
          0.91752833     1.25605611     1.57541649     2.31367231     2.63333535
          3.54229709     3.92694140     6.78323714     7.12998216    41.40317238
         43.88959505

    E(LUMO) :     0.01747149 au (symmetry 1)
  - E(HOMO) :    -0.55490639 au (symmetry 1)
  ------------------------------------------
    gap     :     0.57237789 au

 --- Writing SIRIFC interface file

 CPU and wall time for SCF :       2.263       2.270


                       .-----------------------------------.
                       | --- Final results from SIRIUS --- |
                       `-----------------------------------'


@    Spin multiplicity:           1
@    Spatial symmetry:            1 ( irrep  A1  in C2v )
@    Total charge of molecule:    0

@    Final HF energy:            -112.782231157994                 
@    Nuclear repulsion:            22.514071294559
@    Electronic energy:          -135.296302452554

@    Final gradient norm:           0.000003125695

 
     Date and time (Linux)  : Wed Jan 11 15:39:29 2023
     Host name              : cn016                                   

File label for MO orbitals:  11Jan23   FOCKDIIS

 (Only coefficients > 0.0100 are printed.)

 Molecular orbitals for symmetry species 1  (A1 )
 ------------------------------------------------

    Orbital         1        2        3        4        5        6        7
   1 C_a :1s    -0.0006   0.9965  -0.0429  -0.0145   0.0192   0.0173  -0.0168
   2 C_a :1s    -0.0026  -0.0131   0.3077   0.5156   0.6860   0.0290  -0.0947
   3 C_a :1s     0.0005   0.0054   0.0222   0.0097  -0.0180  -0.0178   0.0150
   4 C_a :1s    -0.0024   0.0095  -0.1032  -0.0781   0.1686   0.8763  -0.1615
   5 C_a :1s    -0.0004  -0.0020  -0.0133  -0.0058   0.0073   0.0071  -0.0071
   7 C_a :1s    -0.0013   0.0018  -0.0116  -0.0220   0.0435   3.8143  -0.8822
   8 C_a :1s    -0.0002   0.0002  -0.0020  -0.0079  -0.0017   5.0522  -1.1404
   9 C_a :2pz    0.0009   0.0067   0.3288   0.1937  -0.7018   0.0389   0.0095
  10 C_a :2pz    0.0005  -0.0053  -0.0674  -0.0295   0.0663   0.0897  -0.0285
  11 C_a :2pz   -0.0017  -0.0003  -0.1325  -0.0672   0.1214   0.5427  -0.1130
  14 C_a :2pz   -0.0006  -0.0002  -0.0129  -0.0032  -0.0218   1.1615  -0.5233
  15 C_a :2pz   -0.0000  -0.0001  -0.0001  -0.0005  -0.0029   0.0347  -2.0241
  18 C_a :3d0    0.0003   0.0010   0.0236   0.0145  -0.0190   0.0038  -0.0006
  20 C_a :3d0    0.0014  -0.0001   0.0189   0.0141  -0.0151   0.0528  -0.0104
  22 C_a :3d0   -0.0009   0.0002  -0.0088   0.0084  -0.0061   0.1308   0.0073
  24 C_a :3d0   -0.0001  -0.0003  -0.0025   0.0003  -0.0079   0.0048  -0.2873
  28 C_a :4f0    0.0008  -0.0003   0.0006  -0.0022   0.0023   0.0106   0.0069
  30 C_a :4f0   -0.0005  -0.0000   0.0000   0.0073  -0.0033   0.0120  -0.0120
  32 O_a :1s     0.9974  -0.0005  -0.0164  -0.0103   0.0007   0.0016  -0.0003
  33 O_a :1s    -0.0092   0.0006   0.7867  -0.4993  -0.0608  -0.0161   0.0170
  35 O_a :1s     0.0091   0.0021  -0.0431  -0.1386   0.0166  -0.3990   0.0776
  38 O_a :1s     0.0026  -0.0033   0.0169  -0.0180  -0.0066  -2.3903   0.6626
  39 O_a :1s     0.0005  -0.0008   0.0014   0.0198  -0.0084  -6.2844   1.9697
  40 O_a :2pz   -0.0034  -0.0013  -0.2361  -0.7343   0.3776  -0.0335   0.0054
  41 O_a :2pz    0.0033   0.0002   0.0020   0.0217  -0.0049   0.0245  -0.0061
  42 O_a :2pz   -0.0022  -0.0026   0.0481   0.0754  -0.0160   0.2257  -0.0784
  45 O_a :2pz   -0.0003   0.0017   0.0175  -0.0107   0.0423   0.7851  -0.0857
  46 O_a :2pz    0.0001   0.0002   0.0019  -0.0021   0.0082   1.1219   1.0073
  49 O_a :3d0    0.0002   0.0002   0.0087   0.0101  -0.0059   0.0007  -0.0002
  51 O_a :3d0   -0.0002  -0.0003   0.0259   0.0220  -0.0168  -0.0150   0.0057
  53 O_a :3d0    0.0015   0.0021  -0.0012   0.0048   0.0004  -0.0294   0.0161
  55 O_a :3d0    0.0003  -0.0002  -0.0063  -0.0037  -0.0088  -0.0767   0.0044

    Orbital         8        9       10       11       12       13       14
   1 C_a :1s    -0.0499  -0.0754  -0.0000   0.0474   0.1522  -0.1716  -0.2513
   2 C_a :1s    -0.2782  -0.4012  -0.0000   0.1304   0.5663  -0.6158  -1.2124
   3 C_a :1s     0.0307   0.0652  -0.0000  -0.0373  -0.0819   0.1540   0.1325
   4 C_a :1s    -0.5881  -2.2044   0.0000  -1.0307   1.2168  -4.6897  -2.3896
   5 C_a :1s    -0.0200  -0.0304  -0.0000   0.0217   0.0618  -0.0718  -0.0993
   6 C_a :1s    -0.0035  -0.0053   0.0000   0.0025   0.0112  -0.0121  -0.0187
   7 C_a :1s    -1.3241  -9.7518   0.0000  -4.3566   0.7518 -18.8570  -4.6328
   8 C_a :1s     0.6145  -7.6861   0.0000  -2.3603  -2.0154  -6.9431  -1.1502
   9 C_a :2pz    0.0288   0.0905  -0.0000   0.0834   0.0625  -0.1017  -0.0450
  10 C_a :2pz   -0.0429  -0.2347   0.0000  -0.0842   0.1216  -0.4816  -0.3635
  11 C_a :2pz    0.4344  -1.1737   0.0000  -1.1479  -1.4075  -2.1539  -0.0451
  14 C_a :2pz    2.1692  -2.6626  -0.0000  -2.6139  -6.1245  -3.8365   1.4100
  15 C_a :2pz    2.2444  -0.9606  -0.0000   0.7181  -1.7323  -0.5741  -0.0237
  18 C_a :3d0   -0.0029  -0.0105  -0.0000   0.0046   0.0105  -0.0167  -0.0205
  20 C_a :3d0    0.0309  -0.1247   0.0000  -0.0764  -0.1256  -0.2043   0.0282
  21 C_a :3d2+  -0.0000   0.0000   0.0148  -0.0000  -0.0000  -0.0000  -0.0000
  22 C_a :3d0    0.2420  -0.2283   0.0000  -0.5167  -0.9156  -0.2093   0.9873
  23 C_a :3d2+  -0.0000   0.0000   0.0878  -0.0000  -0.0000  -0.0000  -0.0000
  24 C_a :3d0    0.7850  -0.3496  -0.0000   0.7354  -2.7025  -0.4316   1.3357
  25 C_a :3d2+  -0.0000  -0.0000   1.2617  -0.0000  -0.0000   0.0000  -0.0000
  26 C_a :4f0    0.0017  -0.0116  -0.0000   0.0008  -0.0089  -0.0210  -0.0005
  28 C_a :4f0    0.0128  -0.0118   0.0000  -0.0581  -0.0518   0.0031   0.0680
  29 C_a :4f2+  -0.0000   0.0000  -0.0324  -0.0000  -0.0000  -0.0000  -0.0000
  30 C_a :4f0    0.0280  -0.0401   0.0000   0.0432  -0.2070  -0.1058   0.4855
  31 C_a :4f2+  -0.0000   0.0000   0.1797  -0.0000  -0.0000  -0.0000  -0.0000
  32 O_a :1s     0.0008  -0.0098   0.0000  -0.0051   0.0140  -0.0062  -0.0405
  33 O_a :1s     0.0170  -0.1135   0.0000   0.0194   0.1073   0.1043  -0.1242
  34 O_a :1s    -0.0031   0.0016   0.0000   0.0085  -0.0053  -0.0028   0.0325
  35 O_a :1s    -0.2097   0.8123  -0.0000   0.7990   0.7790   1.5720   0.1492
  36 O_a :1s     0.0007  -0.0030  -0.0000  -0.0029   0.0042  -0.0023  -0.0161
  38 O_a :1s    -0.2662   5.6673  -0.0000   3.2214   1.9588  12.4231   3.1496
  39 O_a :1s     0.0449  13.9692  -0.0000   4.3414   0.9672  16.4315   3.8805
  40 O_a :2pz    0.0016  -0.0424  -0.0000  -0.0216   0.0292   0.0905   0.0891
  41 O_a :2pz    0.0130  -0.0517   0.0000  -0.0385  -0.0539  -0.0963   0.0053
  42 O_a :2pz   -0.1339  -0.6093   0.0000  -0.1380   0.4423  -1.2867  -1.1637
  45 O_a :2pz   -1.6058  -2.1262   0.0000  -0.1091   4.6234  -5.2950  -4.9720
  46 O_a :2pz   -3.8797  -0.9256   0.0000  -0.8491   3.8751  -1.3374  -0.6358
  51 O_a :3d0    0.0050   0.0386   0.0000   0.0090  -0.0164   0.0873   0.0295
  53 O_a :3d0    0.0899   0.1010   0.0000  -0.0494  -0.3500   0.2669   0.5735
  54 O_a :3d2+   0.0000  -0.0000   0.0299   0.0000   0.0000   0.0000   0.0000
  55 O_a :3d0    0.5166   0.2424  -0.0000  -0.4147  -1.0145   1.0589  -0.7245
  56 O_a :3d2+   0.0000  -0.0000  -0.5025   0.0000   0.0000   0.0000   0.0000
  59 O_a :4f0   -0.0026  -0.0098  -0.0000  -0.0010   0.0293  -0.0176  -0.0860
  60 O_a :4f2+  -0.0000   0.0000  -0.0102  -0.0000  -0.0000  -0.0000  -0.0000
  61 O_a :4f0   -0.0605  -0.0066  -0.0000   0.0467   0.1188  -0.0685   0.0838
  62 O_a :4f2+  -0.0000   0.0000   0.0280  -0.0000  -0.0000  -0.0000  -0.0000

    Orbital        15
  21 C_a :3d2+  -0.0148
  23 C_a :3d2+  -1.2338
  25 C_a :3d2+  -0.9541
  29 C_a :4f2+  -0.0199
  31 C_a :4f2+  -0.6568
  54 O_a :3d2+   0.1166
  56 O_a :3d2+   2.6572
  60 O_a :4f2+   0.0434
  62 O_a :4f2+  -0.3176

 Molecular orbitals for symmetry species 2  (B1 )
 ------------------------------------------------

    Orbital         1        2        3        4        5        6        7
   1 C_a :2px   -0.4411  -0.0153   0.0058  -0.2470   0.0285   0.6242  -0.0512
   2 C_a :2px    0.0242  -0.0029  -0.0453  -0.0507   0.1231  -0.0827   0.2333
   3 C_a :2px    0.0903  -0.0559  -0.6031  -0.6186   1.3302  -1.0129   1.6743
   6 C_a :2px    0.0089  -0.3851  -2.3401  -1.9067   5.1730  -2.9815   4.1960
   7 C_a :2px   -0.0010  -2.0266  -2.5365   0.4215   1.9999  -0.1239   0.2484
   9 C_a :3d1+  -0.0274   0.0019  -0.0008   0.0084  -0.0068  -0.0069   0.0114
  10 C_a :3d1+  -0.0354  -0.0018  -0.0690  -0.0261   0.1679  -0.1419   0.3379
  11 C_a :3d1+   0.0149   0.0116  -0.2068  -0.2541   0.5451  -0.6123   1.6129
  12 C_a :3d1+   0.0014  -0.2711  -0.7466   0.3676   2.5620  -0.1621   1.6652
  13 C_a :4f1+  -0.0079  -0.0008  -0.0044   0.0049   0.0104  -0.0046   0.0158
  15 C_a :4f1+  -0.0040   0.0065  -0.0190  -0.0366   0.0364  -0.0843   0.1533
  17 C_a :4f1+   0.0104  -0.0115  -0.0179   0.0486   0.1768   0.0554   0.5214
  19 O_a :2px   -0.7913   0.0420  -0.0597   0.2472  -0.1454  -0.3470   0.1993
  20 O_a :2px   -0.0068   0.0008  -0.0059  -0.0042   0.0036  -0.0197   0.0109
  21 O_a :2px   -0.0026   0.0063   0.2039   0.2801  -0.5674   0.3871  -1.1489
  24 O_a :2px   -0.0251   0.2203   1.4806   1.1657  -3.8547   2.3535  -5.3738
  25 O_a :2px   -0.0003   1.3927   4.2540   0.3704  -4.3140   1.1627  -1.1216
  27 O_a :3d1+   0.0111  -0.0002   0.0014   0.0032  -0.0012  -0.0045  -0.0055
  28 O_a :3d1+   0.0327  -0.0007  -0.0079  -0.0031   0.0264  -0.0406   0.0327
  29 O_a :3d1+   0.0095  -0.0074  -0.1041  -0.0757   0.2844  -0.2142   0.5667
  30 O_a :3d1+  -0.0068  -0.0281  -0.4278  -0.4110   0.4833  -1.0845  -0.5982
  33 O_a :4f1+  -0.0048   0.0005   0.0056   0.0036  -0.0318   0.0098  -0.0912
  35 O_a :4f1+   0.0039   0.0074   0.0548   0.0321  -0.0660   0.1009   0.0982

    Orbital         8        9       10       11
   1 C_a :2px    0.4146  -0.0000   0.2005   0.3330
   2 C_a :2px    0.2675   0.0000   0.1815  -0.0177
   3 C_a :2px    4.1987   0.0000   1.4061   0.1719
   6 C_a :2px    5.8441   0.0000  -0.0322   1.6461
   7 C_a :2px    0.7475   0.0000  -0.6046   0.0400
   9 C_a :3d1+  -0.0125  -0.0000   0.0047   0.0153
  10 C_a :3d1+   0.3621   0.0000   0.1345   0.0067
  11 C_a :3d1+   0.6094   0.0000   1.2841   2.6431
  12 C_a :3d1+   1.3370   0.0000  -0.8380   0.6078
  13 C_a :4f1+   0.0162  -0.0000  -0.0347   0.0078
  14 C_a :4f3+   0.0000  -0.0336   0.0000   0.0000
  15 C_a :4f1+   0.0974   0.0000   0.2634   0.0670
  16 C_a :4f3+  -0.0000   0.1671  -0.0000  -0.0000
  17 C_a :4f1+  -0.2895   0.0000  -0.8809   1.9807
  18 C_a :4f3+  -0.0000  -1.1564  -0.0000  -0.0000
  19 O_a :2px   -0.0668   0.0000  -0.2190  -0.3542
  20 O_a :2px    0.0058  -0.0000  -0.0152   0.1244
  21 O_a :2px   -1.0514  -0.0000  -0.8169  -1.5627
  24 O_a :2px   -7.3299  -0.0000  -0.8369  -1.8175
  25 O_a :2px   -2.3872  -0.0000   0.8637  -0.3458
  28 O_a :3d1+   0.0313  -0.0000   0.0038   0.0598
  29 O_a :3d1+   0.5987   0.0000   0.3049  -0.1827
  30 O_a :3d1+   3.3175   0.0000   0.8899  -1.5597
  33 O_a :4f1+  -0.0148   0.0000  -0.0121  -0.0488
  34 O_a :4f3+   0.0000  -0.0402   0.0000   0.0000
  35 O_a :4f1+  -0.4242   0.0000  -0.0273   0.4094
  36 O_a :4f3+   0.0000   0.1471   0.0000   0.0000

 Molecular orbitals for symmetry species 3  (B2 )
 ------------------------------------------------

    Orbital         1        2        3        4        5        6        7
   1 C_a :2py   -0.4411  -0.0153   0.0058  -0.2470   0.0285   0.6242  -0.0512
   2 C_a :2py    0.0242  -0.0029  -0.0453  -0.0507   0.1231  -0.0827   0.2333
   3 C_a :2py    0.0903  -0.0559  -0.6031  -0.6186   1.3302  -1.0129   1.6743
   6 C_a :2py    0.0089  -0.3851  -2.3401  -1.9067   5.1730  -2.9815   4.1960
   7 C_a :2py   -0.0010  -2.0266  -2.5365   0.4215   1.9999  -0.1239   0.2484
   9 C_a :3d1-  -0.0274   0.0019  -0.0008   0.0084  -0.0068  -0.0069   0.0114
  10 C_a :3d1-  -0.0354  -0.0018  -0.0690  -0.0261   0.1679  -0.1419   0.3379
  11 C_a :3d1-   0.0149   0.0116  -0.2068  -0.2541   0.5451  -0.6123   1.6129
  12 C_a :3d1-   0.0014  -0.2711  -0.7466   0.3676   2.5620  -0.1621   1.6652
  14 C_a :4f1-  -0.0079  -0.0008  -0.0044   0.0049   0.0104  -0.0046   0.0158
  16 C_a :4f1-  -0.0040   0.0065  -0.0190  -0.0366   0.0364  -0.0843   0.1533
  18 C_a :4f1-   0.0104  -0.0115  -0.0179   0.0486   0.1768   0.0554   0.5214
  19 O_a :2py   -0.7913   0.0420  -0.0597   0.2472  -0.1454  -0.3470   0.1993
  20 O_a :2py   -0.0068   0.0008  -0.0059  -0.0042   0.0036  -0.0197   0.0109
  21 O_a :2py   -0.0026   0.0063   0.2039   0.2801  -0.5674   0.3871  -1.1489
  24 O_a :2py   -0.0251   0.2203   1.4806   1.1657  -3.8547   2.3535  -5.3738
  25 O_a :2py   -0.0003   1.3927   4.2540   0.3704  -4.3140   1.1627  -1.1216
  27 O_a :3d1-   0.0111  -0.0002   0.0014   0.0032  -0.0012  -0.0045  -0.0055
  28 O_a :3d1-   0.0327  -0.0007  -0.0079  -0.0031   0.0264  -0.0406   0.0327
  29 O_a :3d1-   0.0095  -0.0074  -0.1041  -0.0757   0.2844  -0.2142   0.5667
  30 O_a :3d1-  -0.0068  -0.0281  -0.4278  -0.4110   0.4833  -1.0845  -0.5982
  34 O_a :4f1-  -0.0048   0.0005   0.0056   0.0036  -0.0318   0.0098  -0.0912
  36 O_a :4f1-   0.0039   0.0074   0.0548   0.0321  -0.0660   0.1009   0.0982

    Orbital         8        9       10       11
   1 C_a :2py    0.4146   0.0000   0.2005   0.3330
   2 C_a :2py    0.2675  -0.0000   0.1815  -0.0177
   3 C_a :2py    4.1987  -0.0000   1.4061   0.1719
   6 C_a :2py    5.8441  -0.0000  -0.0322   1.6461
   7 C_a :2py    0.7475  -0.0000  -0.6046   0.0400
   9 C_a :3d1-  -0.0125   0.0000   0.0047   0.0153
  10 C_a :3d1-   0.3621  -0.0000   0.1345   0.0067
  11 C_a :3d1-   0.6094  -0.0000   1.2841   2.6431
  12 C_a :3d1-   1.3370  -0.0000  -0.8380   0.6078
  13 C_a :4f3-  -0.0000  -0.0336  -0.0000  -0.0000
  14 C_a :4f1-   0.0162   0.0000  -0.0347   0.0078
  15 C_a :4f3-   0.0000   0.1671   0.0000   0.0000
  16 C_a :4f1-   0.0974  -0.0000   0.2634   0.0670
  17 C_a :4f3-   0.0000  -1.1564   0.0000   0.0000
  18 C_a :4f1-  -0.2895  -0.0000  -0.8809   1.9807
  19 O_a :2py   -0.0668  -0.0000  -0.2190  -0.3542
  20 O_a :2py    0.0058   0.0000  -0.0152   0.1244
  21 O_a :2py   -1.0514   0.0000  -0.8169  -1.5627
  24 O_a :2py   -7.3299   0.0000  -0.8369  -1.8175
  25 O_a :2py   -2.3872   0.0000   0.8637  -0.3458
  28 O_a :3d1-   0.0313   0.0000   0.0038   0.0598
  29 O_a :3d1-   0.5987  -0.0000   0.3049  -0.1827
  30 O_a :3d1-   3.3175  -0.0000   0.8899  -1.5597
  33 O_a :4f3-  -0.0000  -0.0402  -0.0000  -0.0000
  34 O_a :4f1-  -0.0148  -0.0000  -0.0121  -0.0488
  35 O_a :4f3-  -0.0000   0.1471  -0.0000  -0.0000
  36 O_a :4f1-  -0.4242  -0.0000  -0.0273   0.4094

 Molecular orbitals for symmetry species 4  (A2 )
 ------------------------------------------------

    Orbital         1        2        3        4        5        6        7
   2 C_a :3d2-  -0.0008   0.0100  -0.0188   0.0073   0.0243  -0.0585   0.0294
   3 C_a :3d2-   0.0148  -0.0148  -0.0479   0.0865  -0.2406  -0.0172  -0.8698
   4 C_a :3d2-   0.0878  -1.2338  -1.7925   2.4925  -0.3303   3.1432  -0.9403
   5 C_a :3d2-   1.2617  -0.9541   0.2978   0.5892  -0.2211   0.0692  -0.3168
   6 C_a :4f2-   0.0040   0.0085   0.0327   0.0092   0.0241  -0.0761  -0.0660
   7 C_a :4f2-  -0.0324  -0.0199  -0.2295  -0.0212  -0.1216   0.6158   0.8541
   8 C_a :4f2-   0.1797  -0.6568   0.2469   2.0588   0.2505   1.0972  -0.9591
  10 O_a :3d2-   0.0010   0.0030  -0.0015  -0.0036  -0.0304  -0.0299   0.0218
  11 O_a :3d2-   0.0004   0.0086  -0.0159   0.0937   0.0655   0.0683  -0.0298
  12 O_a :3d2-   0.0299   0.1166   0.2710  -0.5002  -0.7997  -1.8711   0.5678
  13 O_a :3d2-  -0.5025   2.6572   0.8362  -2.8143   0.7998  -1.9456   1.1713
  14 O_a :4f2-   0.0019  -0.0079   0.0003   0.0059  -0.0233   0.0107  -0.0243
  15 O_a :4f2-  -0.0102   0.0434   0.0120  -0.0415   0.1321  -0.0329   0.1160
  16 O_a :4f2-   0.0280  -0.3176  -0.3238   0.3774  -1.0487   1.5114  -0.8705

    Orbital         8        9       10
   2 C_a :3d2-  -0.0123   0.0466  -0.1171
   3 C_a :3d2-   2.1060   0.1023   1.2474
   4 C_a :3d2-   1.7516   0.7299  -0.6489
   5 C_a :3d2-  -0.0459  -0.0199  -0.1505
   6 C_a :4f2-  -0.0856   0.1191  -0.0046
   7 C_a :4f2-   1.8978  -0.1658   0.9929
   8 C_a :4f2-   0.3196   0.5229  -0.4263
  11 O_a :3d2-   0.0716   1.2949  -0.4545
  12 O_a :3d2-  -2.9478  -1.2863  -0.7081
  13 O_a :3d2-  -0.7338  -0.2680   0.7560
  14 O_a :4f2-  -0.0308  -0.0489  -0.1235
  15 O_a :4f2-   0.1804   0.3702   1.5875
  16 O_a :4f2-   1.6635   0.1002  -0.3047

  Total CPU  time used in SIRIUS :   2.30 seconds
  Total wall time used in SIRIUS :   2.31 seconds

 
     Date and time (Linux)  : Wed Jan 11 15:39:29 2023
     Host name              : cn016                                   


                     .---------------------------------------.
                     | End of Wave Function Section (SIRIUS) |
                     `---------------------------------------'



                 .------------------------------------------------.
                 | Starting in Dynamic Property Section (RESPONS) |
                 `------------------------------------------------'


 ----------------------------------------------------------------------------------------
  RESPONSE  -  an MCSCF, MC-srDFT, DFT, SOPPA and SOPPA-srDFT response property program
 ----------------------------------------------------------------------------------------


 -------- OUTPUT FROM RESPONSE INPUT PROCESSING --------




 Linear Response calculation
 ---------------------------

 Print level                                    : IPRLR  =   2
 Maximum number of iterations                   : MAXITL =  60
 Threshold for relative convergence             : THCLR  = 1.000D-03
 Maximum iterations in optimal orbital algorithm: MAXITO =   5

  9 B-frequencies  0.000000D+00  2.015931D-02  4.031862D-02  6.047794D-02  8.063725D-02
  1.007966D-01  1.209559D-01  1.411152D-01  1.612745D-01

    1 second order properties calculated with symmetry no.    1 and labels:

          ZDIPLEN 

    1 second order properties calculated with symmetry no.    2 and labels:

          XDIPLEN 

    1 second order properties calculated with symmetry no.    3 and labels:

          YDIPLEN 


   SCF energy         :     -112.782231157994403
 -- inactive part     :     -135.296302452553505
 -- nuclear repulsion :       22.514071294559098


                     ***************************************
                     *** RHF response calculation (TDHF) ***
                     ***************************************

 ----------------------------------------------------------------
 ----- Linear response calculation
 ----- Symmetry of excitation/property operator(s)    1  ( A1 )
 ----------------------------------------------------------------

 Number of excitations of this symmetry            0
 Number of response properties of this symmetry    1
 Number of C6/C8 properties of this symmetry       0


 Perturbation symmetry.     KSYMOP:           1
 Perturbation spin symmetry.TRPLET:           F
 Orbital variables.         KZWOPT:         355
 Configuration variables.   KZCONF:           0
 Total number of variables. KZVAR :         355


 RSPLR -- linear response calculation for symmetry 1  ( A1 )
 RSPLR -- operator label : ZDIPLEN 
 RSPLR -- operator spin  :   0
 RSPLR -- frequencies    :     0.000000  0.020159  0.040319  0.060478  0.080637
                               0.100797  0.120956  0.141115  0.161274



 ---  SOLVING SETS OF LINEAR EQUATIONS FOR LINEAR RESPONSE PROPERTIES ---

 Operator symmetry = 1  ( A1 ); triplet =   F


 ** RSPCTL MICROITERATION NUMBER    1

       No.  Residual tot.,    conf., and orb.    Bnorm      Frequency 
      ----------------------------------------------------------------
         1    2.97973D+00  0.00D+00  2.98D+00  2.54D+00    0.00000D+00
         2    2.98254D+00  0.00D+00  2.98D+00  2.55D+00    2.01593D-02
         3    2.99098D+00  0.00D+00  2.99D+00  2.56D+00    4.03186D-02
         4    3.00518D+00  0.00D+00  3.01D+00  2.59D+00    6.04779D-02
         5    3.02534D+00  0.00D+00  3.03D+00  2.63D+00    8.06372D-02
         6    3.05174D+00  0.00D+00  3.05D+00  2.68D+00    1.00797D-01
         7    3.08476D+00  0.00D+00  3.08D+00  2.74D+00    1.20956D-01
         8    3.12492D+00  0.00D+00  3.12D+00  2.81D+00    1.41115D-01
         9    3.17285D+00  0.00D+00  3.17D+00  2.90D+00    1.61274D-01

 ** RSPCTL MICROITERATION NUMBER    2

       No.  Residual tot.,    conf., and orb.    Bnorm      Frequency 
      ----------------------------------------------------------------
         1    6.09294D-01  0.00D+00  6.09D-01  3.14D+00    0.00000D+00
         2    6.10310D-01  0.00D+00  6.10D-01  3.15D+00    2.01593D-02
         3    6.13377D-01  0.00D+00  6.13D-01  3.17D+00    4.03186D-02
         4    6.18560D-01  0.00D+00  6.19D-01  3.21D+00    6.04779D-02
         5    6.25965D-01  0.00D+00  6.26D-01  3.26D+00    8.06372D-02
         6    6.35753D-01  0.00D+00  6.36D-01  3.32D+00    1.00797D-01
         7    6.48143D-01  0.00D+00  6.48D-01  3.41D+00    1.20956D-01
         8    6.63431D-01  0.00D+00  6.63D-01  3.51D+00    1.41115D-01
         9    6.82005D-01  0.00D+00  6.82D-01  3.64D+00    1.61274D-01

 ** RSPCTL MICROITERATION NUMBER    3

       No.  Residual tot.,    conf., and orb.    Bnorm      Frequency 
      ----------------------------------------------------------------
         1    8.78300D-02  0.00D+00  8.78D-02  3.17D+00    0.00000D+00
         2    8.80208D-02  0.00D+00  8.80D-02  3.18D+00    2.01593D-02
         3    8.85979D-02  0.00D+00  8.86D-02  3.20D+00    4.03186D-02
         4    8.95751D-02  0.00D+00  8.96D-02  3.23D+00    6.04779D-02
         5    9.09764D-02  0.00D+00  9.10D-02  3.29D+00    8.06372D-02
         6    9.28377D-02  0.00D+00  9.28D-02  3.36D+00    1.00797D-01
         7    9.52088D-02  0.00D+00  9.52D-02  3.44D+00    1.20956D-01
         8    9.81578D-02  0.00D+00  9.82D-02  3.55D+00    1.41115D-01
         9    1.01776D-01  0.00D+00  1.02D-01  3.68D+00    1.61274D-01

 ** RSPCTL MICROITERATION NUMBER    4

       No.  Residual tot.,    conf., and orb.    Bnorm      Frequency 
      ----------------------------------------------------------------
         1    7.31007D-03  0.00D+00  7.31D-03  3.17D+00    0.00000D+00
         2    7.33984D-03  0.00D+00  7.34D-03  3.18D+00    2.01593D-02
         3    7.43011D-03  0.00D+00  7.43D-03  3.20D+00    4.03186D-02
         4    7.58379D-03  0.00D+00  7.58D-03  3.24D+00    6.04779D-02
         5    7.80598D-03  0.00D+00  7.81D-03  3.29D+00    8.06372D-02
         6    8.10425D-03  0.00D+00  8.10D-03  3.36D+00    1.00797D-01
         7    8.48920D-03  0.00D+00  8.49D-03  3.44D+00    1.20956D-01
         8    8.97520D-03  0.00D+00  8.98D-03  3.55D+00    1.41115D-01
         9    9.58156D-03  0.00D+00  9.58D-03  3.68D+00    1.61274D-01

 ** RSPCTL MICROITERATION NUMBER    5

       No.  Residual tot.,    conf., and orb.    Bnorm      Frequency 
      ----------------------------------------------------------------
         1    7.72216D-04  0.00D+00  7.72D-04  3.17D+00    0.00000D+00
         2    7.76941D-04  0.00D+00  7.77D-04  3.18D+00    2.01593D-02
         3    7.91319D-04  0.00D+00  7.91D-04  3.20D+00    4.03186D-02
         4    8.15980D-04  0.00D+00  8.16D-04  3.24D+00    6.04779D-02
         5    8.52030D-04  0.00D+00  8.52D-04  3.29D+00    8.06372D-02
         6    9.01161D-04  0.00D+00  9.01D-04  3.36D+00    1.00797D-01
         7    9.65813D-04  0.00D+00  9.66D-04  3.44D+00    1.20956D-01
         8    1.04944D-03  0.00D+00  1.05D-03  3.55D+00    1.41115D-01
         9    1.15689D-03  0.00D+00  1.16D-03  3.68D+00    1.61274D-01

 *** THE REQUESTED    9 SOLUTION VECTORS CONVERGED

 Convergence of RSP solution vectors, threshold = 1.00D-03
 ---------------------------------------------------------------
 (dimension of paired reduced space:   90)
 RSP solution vector no.    1; norm of residual   2.44D-04
 RSP solution vector no.    2; norm of residual   2.45D-04
 RSP solution vector no.    3; norm of residual   2.47D-04
 RSP solution vector no.    4; norm of residual   2.52D-04
 RSP solution vector no.    5; norm of residual   2.59D-04
 RSP solution vector no.    6; norm of residual   2.68D-04
 RSP solution vector no.    7; norm of residual   2.80D-04
 RSP solution vector no.    8; norm of residual   2.96D-04
 RSP solution vector no.    9; norm of residual   3.14D-04

 *** RSPCTL MICROITERATIONS CONVERGED


           Final output of second order properties from linear response
           ------------------------------------------------------------


@ Spin symmetry of operators: singlet

 Note that minus the linear response function: - << A; B >>(omega) is printed.
 The results are of quadratic accuracy using Sellers formula.

@ FREQUENCY INDEPENDENT SECOND ORDER PROPERTIES

@ -<< ZDIPLEN  ; ZDIPLEN  >> =  1.448719264703E+01

@ FREQUENCY DEPENDENT SECOND ORDER PROPERTIES WITH FREQUENCY :

@    a.u.:  2.0159312D-02
@    cm-1:  4.4244576D+03
@    eV  :  5.4856280D-01
@  kJ/mol:  5.2928267D+01
@    nm  :  2.2601640D+03

@ -<< ZDIPLEN  ; ZDIPLEN  >> =  1.450404469676E+01

@ FREQUENCY DEPENDENT SECOND ORDER PROPERTIES WITH FREQUENCY :

@    a.u.:  4.0318625D-02
@    cm-1:  8.8489153D+03
@    eV  :  1.0971256D+00
@  kJ/mol:  1.0585653D+02
@    nm  :  1.1300820D+03

@ -<< ZDIPLEN  ; ZDIPLEN  >> =  1.455489404246E+01

@ FREQUENCY DEPENDENT SECOND ORDER PROPERTIES WITH FREQUENCY :

@    a.u.:  6.0477937D-02
@    cm-1:  1.3273373D+04
@    eV  :  1.6456884D+00
@  kJ/mol:  1.5878480D+02
@    nm  :  7.5338801D+02

@ -<< ZDIPLEN  ; ZDIPLEN  >> =  1.464063443390E+01

@ FREQUENCY DEPENDENT SECOND ORDER PROPERTIES WITH FREQUENCY :

@    a.u.:  8.0637250D-02
@    cm-1:  1.7697831D+04
@    eV  :  2.1942512D+00
@  kJ/mol:  2.1171307D+02
@    nm  :  5.6504101D+02

@ -<< ZDIPLEN  ; ZDIPLEN  >> =  1.476280402758E+01

@ FREQUENCY DEPENDENT SECOND ORDER PROPERTIES WITH FREQUENCY :

@    a.u.:  1.0079656D-01
@    cm-1:  2.2122288D+04
@    eV  :  2.7428140D+00
@  kJ/mol:  2.6464133D+02
@    nm  :  4.5203281D+02

@ -<< ZDIPLEN  ; ZDIPLEN  >> =  1.492366327976E+01

@ FREQUENCY DEPENDENT SECOND ORDER PROPERTIES WITH FREQUENCY :

@    a.u.:  1.2095587D-01
@    cm-1:  2.6546746D+04
@    eV  :  3.2913768D+00
@  kJ/mol:  3.1756960D+02
@    nm  :  3.7669400D+02

@ -<< ZDIPLEN  ; ZDIPLEN  >> =  1.512631494062E+01

@ FREQUENCY DEPENDENT SECOND ORDER PROPERTIES WITH FREQUENCY :

@    a.u.:  1.4111519D-01
@    cm-1:  3.0971203D+04
@    eV  :  3.8399396D+00
@  kJ/mol:  3.7049787D+02
@    nm  :  3.2288058D+02

@ -<< ZDIPLEN  ; ZDIPLEN  >> =  1.537487938146E+01

@ FREQUENCY DEPENDENT SECOND ORDER PROPERTIES WITH FREQUENCY :

@    a.u.:  1.6127450D-01
@    cm-1:  3.5395661D+04
@    eV  :  4.3885024D+00
@  kJ/mol:  4.2342613D+02
@    nm  :  2.8252050D+02

@ -<< ZDIPLEN  ; ZDIPLEN  >> =  1.567474624186E+01


 Time used in linear response calculation is      2.89 CPU seconds for symmetry 1
 ----------------------------------------------------------------
 ----- Linear response calculation
 ----- Symmetry of excitation/property operator(s)    2  ( B1 )
 ----------------------------------------------------------------

 Number of excitations of this symmetry            0
 Number of response properties of this symmetry    1
 Number of C6/C8 properties of this symmetry       0


 Perturbation symmetry.     KSYMOP:           2
 Perturbation spin symmetry.TRPLET:           F
 Orbital variables.         KZWOPT:         248
 Configuration variables.   KZCONF:           0
 Total number of variables. KZVAR :         248


 RSPLR -- linear response calculation for symmetry 2  ( B1 )
 RSPLR -- operator label : XDIPLEN 
 RSPLR -- operator spin  :   0
 RSPLR -- frequencies    :     0.000000  0.020159  0.040319  0.060478  0.080637
                               0.100797  0.120956  0.141115  0.161274



 ---  SOLVING SETS OF LINEAR EQUATIONS FOR LINEAR RESPONSE PROPERTIES ---

 Operator symmetry = 2  ( B1 ); triplet =   F


 ** RSPCTL MICROITERATION NUMBER    1

       No.  Residual tot.,    conf., and orb.    Bnorm      Frequency 
      ----------------------------------------------------------------
         1    9.21733D-01  0.00D+00  9.22D-01  2.79D+00    0.00000D+00
         2    9.23856D-01  0.00D+00  9.24D-01  2.79D+00    2.01593D-02
         3    9.30315D-01  0.00D+00  9.30D-01  2.82D+00    4.03186D-02
         4    9.41386D-01  0.00D+00  9.41D-01  2.87D+00    6.04779D-02
         5    9.57556D-01  0.00D+00  9.58D-01  2.94D+00    8.06372D-02
         6    9.79579D-01  0.00D+00  9.80D-01  3.03D+00    1.00797D-01
         7    1.00856D+00  0.00D+00  1.01D+00  3.15D+00    1.20956D-01
         8    1.04606D+00  0.00D+00  1.05D+00  3.30D+00    1.41115D-01
         9    1.09438D+00  0.00D+00  1.09D+00  3.48D+00    1.61274D-01

 ** RSPCTL MICROITERATION NUMBER    2

       No.  Residual tot.,    conf., and orb.    Bnorm      Frequency 
      ----------------------------------------------------------------
         1    1.39230D-01  0.00D+00  1.39D-01  2.86D+00    0.00000D+00
         2    1.39848D-01  0.00D+00  1.40D-01  2.87D+00    2.01593D-02
         3    1.41739D-01  0.00D+00  1.42D-01  2.90D+00    4.03186D-02
         4    1.45028D-01  0.00D+00  1.45D-01  2.96D+00    6.04779D-02
         5    1.49940D-01  0.00D+00  1.50D-01  3.04D+00    8.06372D-02
         6    1.56834D-01  0.00D+00  1.57D-01  3.15D+00    1.00797D-01
         7    1.66267D-01  0.00D+00  1.66D-01  3.29D+00    1.20956D-01
         8    1.79090D-01  0.00D+00  1.79D-01  3.48D+00    1.41115D-01
         9    1.96639D-01  0.00D+00  1.97D-01  3.73D+00    1.61274D-01

 ** RSPCTL MICROITERATION NUMBER    3

       No.  Residual tot.,    conf., and orb.    Bnorm      Frequency 
      ----------------------------------------------------------------
         1    1.94539D-02  0.00D+00  1.95D-02  2.86D+00    0.00000D+00
         2    1.95534D-02  0.00D+00  1.96D-02  2.87D+00    2.01593D-02
         3    1.98596D-02  0.00D+00  1.99D-02  2.90D+00    4.03186D-02
         4    2.03962D-02  0.00D+00  2.04D-02  2.96D+00    6.04779D-02
         5    2.12068D-02  0.00D+00  2.12D-02  3.04D+00    8.06372D-02
         6    2.23616D-02  0.00D+00  2.24D-02  3.15D+00    1.00797D-01
         7    2.39698D-02  0.00D+00  2.40D-02  3.30D+00    1.20956D-01
         8    2.62003D-02  0.00D+00  2.62D-02  3.49D+00    1.41115D-01
         9    2.93190D-02  0.00D+00  2.93D-02  3.74D+00    1.61274D-01

 ** RSPCTL MICROITERATION NUMBER    4

       No.  Residual tot.,    conf., and orb.    Bnorm      Frequency 
      ----------------------------------------------------------------
         1    1.38108D-03  0.00D+00  1.38D-03  2.86D+00    0.00000D+00
         2    1.39451D-03  0.00D+00  1.39D-03  2.87D+00    2.01593D-02
         3    1.43587D-03  0.00D+00  1.44D-03  2.90D+00    4.03186D-02
         4    1.50852D-03  0.00D+00  1.51D-03  2.96D+00    6.04779D-02
         5    1.61848D-03  0.00D+00  1.62D-03  3.04D+00    8.06372D-02
         6    1.77521D-03  0.00D+00  1.78D-03  3.15D+00    1.00797D-01
         7    1.99297D-03  0.00D+00  1.99D-03  3.30D+00    1.20956D-01
         8    2.29328D-03  0.00D+00  2.29D-03  3.49D+00    1.41115D-01
         9    2.70939D-03  0.00D+00  2.71D-03  3.74D+00    1.61274D-01

 *** THE REQUESTED    9 SOLUTION VECTORS CONVERGED

 Convergence of RSP solution vectors, threshold = 1.00D-03
 ---------------------------------------------------------------
 (dimension of paired reduced space:   72)
 RSP solution vector no.    1; norm of residual   4.83D-04
 RSP solution vector no.    2; norm of residual   4.86D-04
 RSP solution vector no.    3; norm of residual   4.94D-04
 RSP solution vector no.    4; norm of residual   5.10D-04
 RSP solution vector no.    5; norm of residual   5.32D-04
 RSP solution vector no.    6; norm of residual   5.64D-04
 RSP solution vector no.    7; norm of residual   6.05D-04
 RSP solution vector no.    8; norm of residual   6.58D-04
 RSP solution vector no.    9; norm of residual   7.24D-04

 *** RSPCTL MICROITERATIONS CONVERGED


           Final output of second order properties from linear response
           ------------------------------------------------------------


@ Spin symmetry of operators: singlet

 Note that minus the linear response function: - << A; B >>(omega) is printed.
 The results are of quadratic accuracy using Sellers formula.

@ FREQUENCY INDEPENDENT SECOND ORDER PROPERTIES

@ -<< XDIPLEN  ; XDIPLEN  >> =  1.127189290003E+01

@ FREQUENCY DEPENDENT SECOND ORDER PROPERTIES WITH FREQUENCY :

@    a.u.:  2.0159312D-02
@    cm-1:  4.4244576D+03
@    eV  :  5.4856280D-01
@  kJ/mol:  5.2928267D+01
@    nm  :  2.2601640D+03

@ -<< XDIPLEN  ; XDIPLEN  >> =  1.128898766299E+01

@ FREQUENCY DEPENDENT SECOND ORDER PROPERTIES WITH FREQUENCY :

@    a.u.:  4.0318625D-02
@    cm-1:  8.8489153D+03
@    eV  :  1.0971256D+00
@  kJ/mol:  1.0585653D+02
@    nm  :  1.1300820D+03

@ -<< XDIPLEN  ; XDIPLEN  >> =  1.134083454448E+01

@ FREQUENCY DEPENDENT SECOND ORDER PROPERTIES WITH FREQUENCY :

@    a.u.:  6.0477937D-02
@    cm-1:  1.3273373D+04
@    eV  :  1.6456884D+00
@  kJ/mol:  1.5878480D+02
@    nm  :  7.5338801D+02

@ -<< XDIPLEN  ; XDIPLEN  >> =  1.142918123648E+01

@ FREQUENCY DEPENDENT SECOND ORDER PROPERTIES WITH FREQUENCY :

@    a.u.:  8.0637250D-02
@    cm-1:  1.7697831D+04
@    eV  :  2.1942512D+00
@  kJ/mol:  2.1171307D+02
@    nm  :  5.6504101D+02

@ -<< XDIPLEN  ; XDIPLEN  >> =  1.155715361623E+01

@ FREQUENCY DEPENDENT SECOND ORDER PROPERTIES WITH FREQUENCY :

@    a.u.:  1.0079656D-01
@    cm-1:  2.2122288D+04
@    eV  :  2.7428140D+00
@  kJ/mol:  2.6464133D+02
@    nm  :  4.5203281D+02

@ -<< XDIPLEN  ; XDIPLEN  >> =  1.172962714660E+01

@ FREQUENCY DEPENDENT SECOND ORDER PROPERTIES WITH FREQUENCY :

@    a.u.:  1.2095587D-01
@    cm-1:  2.6546746D+04
@    eV  :  3.2913768D+00
@  kJ/mol:  3.1756960D+02
@    nm  :  3.7669400D+02

@ -<< XDIPLEN  ; XDIPLEN  >> =  1.195387191583E+01

@ FREQUENCY DEPENDENT SECOND ORDER PROPERTIES WITH FREQUENCY :

@    a.u.:  1.4111519D-01
@    cm-1:  3.0971203D+04
@    eV  :  3.8399396D+00
@  kJ/mol:  3.7049787D+02
@    nm  :  3.2288058D+02

@ -<< XDIPLEN  ; XDIPLEN  >> =  1.224066029810E+01

@ FREQUENCY DEPENDENT SECOND ORDER PROPERTIES WITH FREQUENCY :

@    a.u.:  1.6127450D-01
@    cm-1:  3.5395661D+04
@    eV  :  4.3885024D+00
@  kJ/mol:  4.2342613D+02
@    nm  :  2.8252050D+02

@ -<< XDIPLEN  ; XDIPLEN  >> =  1.260622039325E+01


 Time used in linear response calculation is      2.36 CPU seconds for symmetry 2
 ----------------------------------------------------------------
 ----- Linear response calculation
 ----- Symmetry of excitation/property operator(s)    3  ( B2 )
 ----------------------------------------------------------------

 Number of excitations of this symmetry            0
 Number of response properties of this symmetry    1
 Number of C6/C8 properties of this symmetry       0


 Perturbation symmetry.     KSYMOP:           3
 Perturbation spin symmetry.TRPLET:           F
 Orbital variables.         KZWOPT:         248
 Configuration variables.   KZCONF:           0
 Total number of variables. KZVAR :         248


 RSPLR -- linear response calculation for symmetry 3  ( B2 )
 RSPLR -- operator label : YDIPLEN 
 RSPLR -- operator spin  :   0
 RSPLR -- frequencies    :     0.000000  0.020159  0.040319  0.060478  0.080637
                               0.100797  0.120956  0.141115  0.161274



 ---  SOLVING SETS OF LINEAR EQUATIONS FOR LINEAR RESPONSE PROPERTIES ---

 Operator symmetry = 3  ( B2 ); triplet =   F


 ** RSPCTL MICROITERATION NUMBER    1

       No.  Residual tot.,    conf., and orb.    Bnorm      Frequency 
      ----------------------------------------------------------------
         1    9.33877D-01  0.00D+00  9.34D-01  2.79D+00    0.00000D+00
         2    9.35967D-01  0.00D+00  9.36D-01  2.80D+00    2.01593D-02
         3    9.42325D-01  0.00D+00  9.42D-01  2.82D+00    4.03186D-02
         4    9.53221D-01  0.00D+00  9.53D-01  2.87D+00    6.04779D-02
         5    9.69136D-01  0.00D+00  9.69D-01  2.94D+00    8.06372D-02
         6    9.90811D-01  0.00D+00  9.91D-01  3.03D+00    1.00797D-01
         7    1.01933D+00  0.00D+00  1.02D+00  3.15D+00    1.20956D-01
         8    1.05624D+00  0.00D+00  1.06D+00  3.30D+00    1.41115D-01
         9    1.10379D+00  0.00D+00  1.10D+00  3.49D+00    1.61274D-01

 ** RSPCTL MICROITERATION NUMBER    2

       No.  Residual tot.,    conf., and orb.    Bnorm      Frequency 
      ----------------------------------------------------------------
         1    1.36853D-01  0.00D+00  1.37D-01  2.86D+00    0.00000D+00
         2    1.37457D-01  0.00D+00  1.37D-01  2.87D+00    2.01593D-02
         3    1.39310D-01  0.00D+00  1.39D-01  2.90D+00    4.03186D-02
         4    1.42533D-01  0.00D+00  1.43D-01  2.96D+00    6.04779D-02
         5    1.47347D-01  0.00D+00  1.47D-01  3.04D+00    8.06372D-02
         6    1.54108D-01  0.00D+00  1.54D-01  3.15D+00    1.00797D-01
         7    1.63363D-01  0.00D+00  1.63D-01  3.29D+00    1.20956D-01
         8    1.75951D-01  0.00D+00  1.76D-01  3.48D+00    1.41115D-01
         9    1.93185D-01  0.00D+00  1.93D-01  3.73D+00    1.61274D-01

 ** RSPCTL MICROITERATION NUMBER    3

       No.  Residual tot.,    conf., and orb.    Bnorm      Frequency 
      ----------------------------------------------------------------
         1    1.82697D-02  0.00D+00  1.83D-02  2.86D+00    0.00000D+00
         2    1.83849D-02  0.00D+00  1.84D-02  2.87D+00    2.01593D-02
         3    1.87388D-02  0.00D+00  1.87D-02  2.90D+00    4.03186D-02
         4    1.93567D-02  0.00D+00  1.94D-02  2.96D+00    6.04779D-02
         5    2.02846D-02  0.00D+00  2.03D-02  3.04D+00    8.06372D-02
         6    2.15961D-02  0.00D+00  2.16D-02  3.15D+00    1.00797D-01
         7    2.34034D-02  0.00D+00  2.34D-02  3.30D+00    1.20956D-01
         8    2.58784D-02  0.00D+00  2.59D-02  3.49D+00    1.41115D-01
         9    2.92885D-02  0.00D+00  2.93D-02  3.74D+00    1.61274D-01

 ** RSPCTL MICROITERATION NUMBER    4

       No.  Residual tot.,    conf., and orb.    Bnorm      Frequency 
      ----------------------------------------------------------------
         1    1.35385D-03  0.00D+00  1.35D-03  2.86D+00    0.00000D+00
         2    1.36884D-03  0.00D+00  1.37D-03  2.87D+00    2.01593D-02
         3    1.41491D-03  0.00D+00  1.41D-03  2.90D+00    4.03186D-02
         4    1.49545D-03  0.00D+00  1.50D-03  2.96D+00    6.04779D-02
         5    1.61648D-03  0.00D+00  1.62D-03  3.04D+00    8.06372D-02
         6    1.78744D-03  0.00D+00  1.79D-03  3.15D+00    1.00797D-01
         7    2.02252D-03  0.00D+00  2.02D-03  3.30D+00    1.20956D-01
         8    2.34301D-03  0.00D+00  2.34D-03  3.49D+00    1.41115D-01
         9    2.78173D-03  0.00D+00  2.78D-03  3.74D+00    1.61274D-01

 *** THE REQUESTED    9 SOLUTION VECTORS CONVERGED

 Convergence of RSP solution vectors, threshold = 1.00D-03
 ---------------------------------------------------------------
 (dimension of paired reduced space:   72)
 RSP solution vector no.    1; norm of residual   4.73D-04
 RSP solution vector no.    2; norm of residual   4.77D-04
 RSP solution vector no.    3; norm of residual   4.87D-04
 RSP solution vector no.    4; norm of residual   5.05D-04
 RSP solution vector no.    5; norm of residual   5.32D-04
 RSP solution vector no.    6; norm of residual   5.67D-04
 RSP solution vector no.    7; norm of residual   6.14D-04
 RSP solution vector no.    8; norm of residual   6.72D-04
 RSP solution vector no.    9; norm of residual   7.44D-04

 *** RSPCTL MICROITERATIONS CONVERGED


           Final output of second order properties from linear response
           ------------------------------------------------------------


@ Spin symmetry of operators: singlet

 Note that minus the linear response function: - << A; B >>(omega) is printed.
 The results are of quadratic accuracy using Sellers formula.

@ FREQUENCY INDEPENDENT SECOND ORDER PROPERTIES

@ -<< YDIPLEN  ; YDIPLEN  >> =  1.127189290412E+01

@ FREQUENCY DEPENDENT SECOND ORDER PROPERTIES WITH FREQUENCY :

@    a.u.:  2.0159312D-02
@    cm-1:  4.4244576D+03
@    eV  :  5.4856280D-01
@  kJ/mol:  5.2928267D+01
@    nm  :  2.2601640D+03

@ -<< YDIPLEN  ; YDIPLEN  >> =  1.128898766700E+01

@ FREQUENCY DEPENDENT SECOND ORDER PROPERTIES WITH FREQUENCY :

@    a.u.:  4.0318625D-02
@    cm-1:  8.8489153D+03
@    eV  :  1.0971256D+00
@  kJ/mol:  1.0585653D+02
@    nm  :  1.1300820D+03

@ -<< YDIPLEN  ; YDIPLEN  >> =  1.134083454830E+01

@ FREQUENCY DEPENDENT SECOND ORDER PROPERTIES WITH FREQUENCY :

@    a.u.:  6.0477937D-02
@    cm-1:  1.3273373D+04
@    eV  :  1.6456884D+00
@  kJ/mol:  1.5878480D+02
@    nm  :  7.5338801D+02

@ -<< YDIPLEN  ; YDIPLEN  >> =  1.142918124003E+01

@ FREQUENCY DEPENDENT SECOND ORDER PROPERTIES WITH FREQUENCY :

@    a.u.:  8.0637250D-02
@    cm-1:  1.7697831D+04
@    eV  :  2.1942512D+00
@  kJ/mol:  2.1171307D+02
@    nm  :  5.6504101D+02

@ -<< YDIPLEN  ; YDIPLEN  >> =  1.155715361954E+01

@ FREQUENCY DEPENDENT SECOND ORDER PROPERTIES WITH FREQUENCY :

@    a.u.:  1.0079656D-01
@    cm-1:  2.2122288D+04
@    eV  :  2.7428140D+00
@  kJ/mol:  2.6464133D+02
@    nm  :  4.5203281D+02

@ -<< YDIPLEN  ; YDIPLEN  >> =  1.172962714995E+01

@ FREQUENCY DEPENDENT SECOND ORDER PROPERTIES WITH FREQUENCY :

@    a.u.:  1.2095587D-01
@    cm-1:  2.6546746D+04
@    eV  :  3.2913768D+00
@  kJ/mol:  3.1756960D+02
@    nm  :  3.7669400D+02

@ -<< YDIPLEN  ; YDIPLEN  >> =  1.195387191995E+01

@ FREQUENCY DEPENDENT SECOND ORDER PROPERTIES WITH FREQUENCY :

@    a.u.:  1.4111519D-01
@    cm-1:  3.0971203D+04
@    eV  :  3.8399396D+00
@  kJ/mol:  3.7049787D+02
@    nm  :  3.2288058D+02

@ -<< YDIPLEN  ; YDIPLEN  >> =  1.224066030465E+01

@ FREQUENCY DEPENDENT SECOND ORDER PROPERTIES WITH FREQUENCY :

@    a.u.:  1.6127450D-01
@    cm-1:  3.5395661D+04
@    eV  :  4.3885024D+00
@  kJ/mol:  4.2342613D+02
@    nm  :  2.8252050D+02

@ -<< YDIPLEN  ; YDIPLEN  >> =  1.260622040581E+01


 Time used in linear response calculation is      2.36 CPU seconds for symmetry 3

  Total CPU  time used in RESPONSE:   7.62 seconds
  Total wall time used in RESPONSE:   7.65 seconds


                   .-------------------------------------------.
                   | End of Dynamic Property Section (RESPONS) |
                   `-------------------------------------------'

  Total CPU  time used in DALTON:  10.25 seconds
  Total wall time used in DALTON:  10.30 seconds

 
     Date and time (Linux)  : Wed Jan 11 15:39:36 2023
     Host name              : cn016                                   
