

     ************************************************************************
     *************** Dalton - An Electronic Structure Program ***************
     ************************************************************************

    This is output from DALTON release Dalton2020.0 (2020)
         ( Web site: http://daltonprogram.org )

   ----------------------------------------------------------------------------

    NOTE:
     
    Dalton is an experimental code for the evaluation of molecular
    properties using (MC)SCF, DFT, CI, and CC wave functions.
    The authors accept no responsibility for the performance of
    the code or for the correctness of the results.
     
    The code (in whole or part) is provided under a licence and
    is not to be reproduced for further distribution without
    the written permission of the authors or their representatives.
     
    See the home page "http://daltonprogram.org" for further information.
     
    If results obtained with this code are published,
    the appropriate citations would be both of:
     
       K. Aidas, C. Angeli, K. L. Bak, V. Bakken, R. Bast,
       L. Boman, O. Christiansen, R. Cimiraglia, S. Coriani,
       P. Dahle, E. K. Dalskov, U. Ekstroem,
       T. Enevoldsen, J. J. Eriksen, P. Ettenhuber, B. Fernandez,
       L. Ferrighi, H. Fliegl, L. Frediani, K. Hald, A. Halkier,
       C. Haettig, H. Heiberg, T. Helgaker, A. C. Hennum,
       H. Hettema, E. Hjertenaes, S. Hoest, I.-M. Hoeyvik,
       M. F. Iozzi, B. Jansik, H. J. Aa. Jensen, D. Jonsson,
       P. Joergensen, J. Kauczor, S. Kirpekar,
       T. Kjaergaard, W. Klopper, S. Knecht, R. Kobayashi, H. Koch,
       J. Kongsted, A. Krapp, K. Kristensen, A. Ligabue,
       O. B. Lutnaes, J. I. Melo, K. V. Mikkelsen, R. H. Myhre,
       C. Neiss, C. B. Nielsen, P. Norman, J. Olsen,
       J. M. H. Olsen, A. Osted, M. J. Packer, F. Pawlowski,
       T. B. Pedersen, P. F. Provasi, S. Reine, Z. Rinkevicius,
       T. A. Ruden, K. Ruud, V. Rybkin, P. Salek, C. C. M. Samson,
       A. Sanchez de Meras, T. Saue, S. P. A. Sauer,
       B. Schimmelpfennig, K. Sneskov, A. H. Steindal,
       K. O. Sylvester-Hvid, P. R. Taylor, A. M. Teale,
       E. I. Tellgren, D. P. Tew, A. J. Thorvaldsen, L. Thoegersen,
       O. Vahtras, M. A. Watson, D. J. D. Wilson, M. Ziolkowski
       and H. Agren,
       "The Dalton quantum chemistry program system",
       WIREs Comput. Mol. Sci. 2014, 4:269–284 (doi: 10.1002/wcms.1172)
     
    and
     
       Dalton, a molecular electronic structure program,
       Release Dalton2020.0 (2020), see http://daltonprogram.org
   ----------------------------------------------------------------------------

    Authors in alphabetical order (Major contribution(s) in parenthesis):

  Kestutis Aidas,           Vilnius University,           Lithuania   (QM/MM)
  Celestino Angeli,         University of Ferrara,        Italy       (NEVPT2)
  Keld L. Bak,              UNI-C,                        Denmark     (AOSOPPA, non-adiabatic coupling, magnetic properties)
  Vebjoern Bakken,          University of Oslo,           Norway      (DALTON; geometry optimizer, symmetry detection)
  Radovan Bast,             UiT The Arctic U. of Norway,  Norway      (DALTON installation and execution frameworks)
  Pablo Baudin,             University of Valencia,       Spain       (Cholesky excitation energies)
  Linus Boman,              NTNU,                         Norway      (Cholesky decomposition and subsystems)
  Bruno N. Cabral Tenorio,  Technical Univ. of Denmark,   Denmark     (Lanczos-based CC methods)
  Ove Christiansen,         Aarhus University,            Denmark     (CC module)
  Renzo Cimiraglia,         University of Ferrara,        Italy       (NEVPT2)
  Sonia Coriani,            Technical Univ. of Denmark,   Denmark     (CC and RESPONS modules)
  Janusz Cukras,            University of Warsaw,         Poland      (MChD in RESPONS)
  Paal Dahle,               University of Oslo,           Norway      (Parallelization)
  Erik K. Dalskov,          UNI-C,                        Denmark     (SOPPA)
  Thomas Enevoldsen,        Univ. of Southern Denmark,    Denmark     (SOPPA)
  Janus J. Eriksen,         Aarhus University,            Denmark     (Polarizable embedding, TDA)
  Rasmus Faber,             Technical Univ. of Denmark,   Denmark     (Vib.avg. NMR w. SOPPA, parallel AO-SOPPA, CVS-CC and EOMCC)
  Tobias Fahleson,          KTH Stockholm,                Sweden      (Damped cubic response)
  Berta Fernandez,          U. of Santiago de Compostela, Spain       (Doublet spin, ESR in RESPONS)
  Lara Ferrighi,            Aarhus University,            Denmark     (PCM Cubic response)
  Heike Fliegl,             University of Oslo,           Norway      (CCSD(R12))
  Luca Frediani,            UiT The Arctic U. of Norway,  Norway      (PCM)
  Emmanuel Fromager,        Univ. Strasbourg,             France      (MC-srDFT)
  Bin Gao,                  UiT The Arctic U. of Norway,  Norway      (Gen1Int library)
  Andre S. P. Gomes,        CNRS/Universite de Lille,     France      (Frozen density embedding)
  Christof Haettig,         Ruhr-University Bochum,       Germany     (CC module)
  Kasper Hald,              Aarhus University,            Denmark     (CC module)
  Asger Halkier,            Aarhus University,            Denmark     (CC module)
  Frederik Beyer Hansen,    University of Copenhagen,     Denmark     (Parallel AO-SOPPA)
  Erik D. Hedegaard,        Univ. of Southern Denmark,    Denmark     (Polarizable embedding, QM/MM, and MC-srDFT)
  Hanne Heiberg,            University of Oslo,           Norway      (Geometry analysis, selected one-electron integrals)
  Trygve Helgaker,          University of Oslo,           Norway      (DALTON; ABACUS, ERI, DFT modules, London, and much more)
  Alf Christian Hennum,     University of Oslo,           Norway      (Parity violation)
  Hinne Hettema,            University of Auckland,       New Zealand (Quadratic response in RESPONS; SIRIUS supersymmetry)
  Eirik Hjertenaes,         NTNU,                         Norway      (Cholesky decomposition)
  Pi A. B. Haase,           University of Copenhagen,     Denmark     (Triplet AO-SOPPA)
  Maria Francesca Iozzi,    University of Oslo,           Norway      (RPA)
  Christoph Jacob           TU Braunschweig               Germany     (Frozen density embedding)
  Brano Jansik              Technical Univ. of Ostrava    Czech Rep.  (DFT cubic response)
  Hans Joergen Aa. Jensen,  Univ. of Southern Denmark,    Denmark     (DALTON; SIRIUS, RESPONS, ABACUS, MC-srDFT, and much more)
  Dan Jonsson,              UiT The Arctic U. of Norway,  Norway      (Cubic response in RESPONS module)
  Poul Joergensen,          Aarhus University,            Denmark     (RESPONS, ABACUS, and CC modules)
  Maciej Kaminski,          University of Warsaw,         Poland      (CPPh in RESPONS)
  Joanna Kauczor,           Linkoeping University,        Sweden      (Complex polarization propagator (CPP) module)
  Sheela Kirpekar,          Univ. of Southern Denmark,    Denmark     (Mass-velocity & Darwin integrals)
  Erik Kjellgren,           Univ. of Southern Denmark,    Denmark     (MC-srDFT)
  Wim Klopper,              KIT Karlsruhe,                Germany     (R12 code in CC, SIRIUS, and ABACUS modules)
  Stefan Knecht,            ETH Zurich,                   Switzerland (Parallel CI and MCSCF, MC-srDFT)
  Rika Kobayashi,           Australian National Univ.,    Australia   (DIIS in CC, London in MCSCF)
  Henrik Koch,              NTNU,                         Norway      (CC module, Cholesky decomposition)
  Jacob Kongsted,           Univ. of Southern Denmark,    Denmark     (Polarizable embedding, polarizable density embedding, QM/MM)
  Andrea Ligabue,           University of Modena,         Italy       (CTOCD, AOSOPPA)
  Nanna H. List             Univ. of Southern Denmark,    Denmark     (Polarizable embedding)
  Ola B. Lutnaes,           University of Oslo,           Norway      (DFT Hessian)
  Juan I. Melo,             University of Buenos Aires,   Argentina   (LRESC, Relativistic Effects on NMR Shieldings)
  Kurt V. Mikkelsen,        University of Copenhagen,     Denmark     (MC-SCRF and QM/MM)
  Rolf H. Myhre,            NTNU,                         Norway      (Subsystems and CC3)
  Christian Neiss,          Univ. Erlangen-Nuernberg,     Germany     (CCSD(R12))
  Christian B. Nielsen,     University of Copenhagen,     Denmark     (QM/MM)
  Patrick Norman,           KTH Stockholm,                Sweden      (Cubic response and complex frequency response in RESPONS)
  Jeppe Olsen,              Aarhus University,            Denmark     (SIRIUS CI/density modules)
  Jogvan Magnus H. Olsen,   Aarhus University,            Denmark     (Polarizable embedding and polarizable density embedding)
  Anders Osted,             Copenhagen University,        Denmark     (QM/MM)
  Martin J. Packer,         University of Sheffield,      UK          (SOPPA)
  Filip Pawlowski,          Kazimierz Wielki University,  Poland      (CC3)
  Morten N. Pedersen,       Univ. of Southern Denmark,    Denmark     (Polarizable embedding)
  Thomas B. Pedersen,       University of Oslo,           Norway      (Cholesky decomposition)
  Patricio F. Provasi,      University of Northeastern,   Argentina   (Analysis of coupling constants in localized orbitals)
  Peter Reinholdt,          Univ. of Southern Denmark,    Denmark     (Polarizable embedding and polarizable density embedding)
  Zilvinas Rinkevicius,     KTH Stockholm,                Sweden      (open-shell DFT, ESR)
  Elias Rudberg,            KTH Stockholm,                Sweden      (DFT grid and basis info)
  Torgeir A. Ruden,         University of Oslo,           Norway      (Numerical derivatives in ABACUS)
  Kenneth Ruud,             UiT The Arctic U. of Norway,  Norway      (DALTON; ABACUS magnetic properties and much more)
  Pawel Salek,              KTH Stockholm,                Sweden      (DALTON; DFT code)
  Claire C. M. Samson       University of Karlsruhe       Germany     (Boys localization, r12 integrals in ERI)
  Alfredo Sanchez de Meras, University of Valencia,       Spain       (CC module, Cholesky decomposition)
  Trond Saue,               Paul Sabatier University,     France      (direct Fock matrix construction)
  Stephan P. A. Sauer,      University of Copenhagen,     Denmark     (SOPPA(CCSD), SOPPA prop., AOSOPPA, vibrational g-factors)
  Bernd Schimmelpfennig,    Forschungszentrum Karlsruhe,  Germany     (AMFI module)
  Anna K. Schnack-Petersen, University of Copenhagen,     Denmark     (RPA(D) and HRPA(D) properties in AOSOPPA)
  Kristian Sneskov,         Aarhus University,            Denmark     (Polarizable embedding, QM/MM)
  Arnfinn H. Steindal,      UiT The Arctic U. of Norway,  Norway      (parallel QM/MM, polarizable embedding)
  Casper Steinmann,         Aalborg University,           Denmark     (QFIT, polarizable embedding)
  K. O. Sylvester-Hvid,     University of Copenhagen,     Denmark     (MC-SCRF)
  Peter R. Taylor,          VLSCI/Univ. of Melbourne,     Australia   (Symmetry handling ABACUS, integral transformation)
  Andrew M. Teale,          University of Nottingham,     England     (DFT-AC, DFT-D)
  David P. Tew,             University of Bristol,        England     (CCSD(R12))
  Julien Toulouse,          Sorbonne Univ.,               France      (MC-srDFT)
  Olav Vahtras,             KTH Stockholm,                Sweden      (Triplet response, spin-orbit, ESR, TDDFT, open-shell DFT)
  Lucas Visscher,           Vrije Universiteit Amsterdam, Netherlands (Frozen density embedding)
  David J. Wilson,          La Trobe University,          Australia   (DFT Hessian and DFT magnetizabilities)
  Hans Agren,               KTH Stockholm,                Sweden      (SIRIUS module, RESPONS, MC-SCRF solvation)
 --------------------------------------------------------------------------------

     Date and time (Linux)  : Wed Jan 11 14:21:34 2023
     Host name              : cn023                                   

 * Work memory size             :    64000000 =  488.28 megabytes.

 * Directories for basis set searches:
   1) /gpfs/projects/rjh/adrian/fd_compare/dalton/hf/CO/dipole
   2) /gpfs/projects/rjh/adrian/dalton/build/basis


Compilation information
-----------------------

 Who compiled             | ahurtado
 Host                     | sn-mem
 System                   | Linux-3.10.0-1160.24.1.el7.x86_64
 CMake generator          | Unix Makefiles
 Processor                | x86_64
 64-bit integers          | OFF
 MPI                      | ON
 Fortran compiler         | /gpfs/software/intel/oneAPI/2021_4/mpi/2021.4.0/bi
                          | n/mpif90
 Fortran compiler version | GNU Fortran (GCC) 11.2.0
 C compiler               | /gpfs/software/intel/oneAPI/2021_4/mpi/2021.4.0/bi
                          | n/mpicc
 C compiler version       | gcc (GCC) 11.2.0
 C++ compiler             | /gpfs/software/intel/oneAPI/2021_4/mpi/2021.4.0/bi
                          | n/mpicxx
 C++ compiler version     | unknown
 BLAS                     | /gpfs/software/intel/oneAPI/2021_4/mkl/2021.4.0/li
                          | b/intel64/libmkl_gf_lp64.so;/gpfs/software/intel/o
                          | neAPI/2021_4/mkl/2021.4.0/lib/intel64/libmkl_seque
                          | ntial.so;/gpfs/software/intel/oneAPI/2021_4/mkl/20
                          | 21.4.0/lib/intel64/libmkl_core.so;/usr/lib64/libpt
                          | hread.so;/usr/lib64/libm.so
 LAPACK                   | /gpfs/software/intel/oneAPI/2021_4/mkl/2021.4.0/li
                          | b/intel64/libmkl_lapack95_lp64.a;/gpfs/software/in
                          | tel/oneAPI/2021_4/mkl/2021.4.0/lib/intel64/libmkl_
                          | gf_lp64.so
 Static linking           | OFF
 Last Git revision        | 66052b3af5ea7225e31178bf9a8b031913c72190
 Git branch               | (HEAD detached at Dalton2020.0)
 Configuration time       | 2023-01-11 13:33:37.731835

 * MPI parallel run using 20 processes.


   Content of the .dal input file
 ----------------------------------

**DALTON INPUT
.RUN RESPONSE
.DIRECT
**WAVE FUNCTIONS
.HF
**RESPONSE
*LINEAR
.DIPLEN
.FREQUENCIES
9
0.0 0.0201593125 0.040318625 0.060477937499999995 0.08063725 0.10079656249999999 0.12095587499999999
**END OF DALTON INPUT


   Content of the .mol file
 ----------------------------

BASIS
aug-cc-pCVDZ
blah
blah
Atomtype=2 Atomic
Charge=6 Atoms=1
C_a 0.000000000000 0.000000000000 0.000000000000
Charge=8 Atoms=1
O_a 0.000000000000 0.000000000000 2.132000000000


       *******************************************************************
       *********** Output from DALTON general input processing ***********
       *******************************************************************

 --------------------------------------------------------------------------------
   Overall default print level:    0
   Print level for DALTON.STAT:    1

    Parallel calculation using MPI
    AO-direct calculation (in sections where implemented)
    HERMIT 1- and 2-electron integral sections will be executed
    "Old" integral transformation used (limited to max 255 basis functions)
    Wave function sections will be executed (SIRIUS module)
    Dynamic molecular response properties section will be executed (RESPONSE module)
 --------------------------------------------------------------------------------


   ****************************************************************************
   *************** Output of molecule and basis set information ***************
   ****************************************************************************


    The two title cards from your ".mol" input:
    ------------------------------------------------------------------------
 1: blah                                                                    
 2: blah                                                                    
    ------------------------------------------------------------------------

  Atomic type no.    1
  --------------------
  Nuclear charge:   6.00000
  Number of symmetry independent centers:    1
  Number of basis sets to read;    2
  Basis set file used for this atomic type with Z =   6 :
     "/gpfs/projects/rjh/adrian/dalton/build/basis/aug-cc-pCVDZ"

  Atomic type no.    2
  --------------------
  Nuclear charge:   8.00000
  Number of symmetry independent centers:    1
  Number of basis sets to read;    2
  Basis set file used for this atomic type with Z =   8 :
     "/gpfs/projects/rjh/adrian/dalton/build/basis/aug-cc-pCVDZ"


                      SYMADD: Requested addition of symmetry
                      --------------------------------------

 Symmetry test threshold:  5.00E-06

@   The molecule is centered at center of mass and rotated
@   so principal axes of inertia are along coordinate axes.

 Symmetry class found: C(oo,v)        

 Symmetry Independent Centres             
 ----------------------------
O_a    8 :      0.00000000     0.00000000     0.91388025  Isotope  1
C_a    6 :      0.00000000     0.00000000    -1.21811975  Isotope  1

 The following symmetry elements were found:   X  Y     


                         SYMGRP: Point group information
                         -------------------------------

@    Full point group is: C(oo,v)        
@    Represented as:      C2v

@  * The irrep name for each symmetry:    1: A1     2: B1     3: B2     4: A2 

   * The point group was generated by:

      Reflection in the yz-plane
      Reflection in the xz-plane

   * Group multiplication table

        |  E   C2z  Oxz  Oyz
   -----+--------------------
     E  |  E   C2z  Oxz  Oyz
    C2z | C2z   E   Oyz  Oxz
    Oxz | Oxz  Oyz   E   C2z
    Oyz | Oyz  Oxz  C2z   E 

   * Character table

        |  E   C2z  Oxz  Oyz
   -----+--------------------
    A1  |   1    1    1    1
    B1  |   1   -1    1   -1
    B2  |   1   -1   -1    1
    A2  |   1    1   -1   -1

   * Direct product table

        | A1   B1   B2   A2 
   -----+--------------------
    A1  | A1   B1   B2   A2 
    B1  | B1   A1   A2   B2 
    B2  | B2   A2   A1   B1 
    A2  | A2   B2   B1   A1 


                                 Isotopic Masses
                                 ---------------

                           C_a        12.000000
                           O_a        15.994915

                       Total mass:    27.994915 amu
                       Natural abundance:  98.663 %

 Center-of-mass coordinates (a.u.):    0.000000    0.000000    0.000000
 Center-of-mass coordinates (Angs):    0.000000    0.000000    0.000000


  Atoms and basis sets
  --------------------

  Number of atom types :    2
  Total number of atoms:    2

  Basis set used is "aug-cc-pCVDZ" from the basis set library.

  label    atoms   charge   prim   cont     basis
  ----------------------------------------------------------------------
  C_          1    6.0000    39    27      [11s6p2d|5s4p2d]                                   
  O_          1    8.0000    39    27      [11s6p2d|5s4p2d]                                   
  ----------------------------------------------------------------------
  total:      2   14.0000    78    54
  ----------------------------------------------------------------------
  Spherical harmonic basis used.

  Threshold for neglecting AO integrals:  1.00D-12


  Cartesian Coordinates (a.u.)
  ----------------------------

  Total number of coordinates:    6
  C_a     :     1  x   0.0000000000    2  y   0.0000000000    3  z  -1.2181197471
  O_a     :     4  x   0.0000000000    5  y   0.0000000000    6  z   0.9138802529


  Symmetry Coordinates
  --------------------

  Number of coordinates in each symmetry:     2    2    2    0

  Symmetry  A1  ( 1)

    1   C_a   z    3
    2   O_a   z    6

  Symmetry  B1  ( 2)

    3   C_a   x    1
    4   O_a   x    4

  Symmetry  B2  ( 3)

    5   C_a   y    2
    6   O_a   y    5


   Interatomic separations (in Angstrom):
   --------------------------------------

            C_a         O_a   
            ------      ------
 C_a   :    0.000000
 O_a   :    1.128206    0.000000


  Max    interatomic separation is    1.1282 Angstrom (    2.1320 Bohr)
  between atoms    2 and    1, "O_a   " and "C_a   ".

  Min YX interatomic separation is    1.1282 Angstrom (    2.1320 Bohr)


  Bond distances (Angstrom):
  --------------------------

                  atom 1     atom 2       distance
                  ------     ------       --------
  bond distance:  O_a        C_a          1.128206




 Principal moments of inertia (u*A**2) and principal axes
 --------------------------------------------------------

   IA       0.000000          0.000000    0.000000    1.000000
   IB       8.726914          0.000000    1.000000    0.000000
   IC       8.726914          1.000000    0.000000    0.000000


 Rotational constants
 --------------------

@    The molecule is linear.

               B =        57910.39 MHz     (    1.931683 cm-1)


@  Nuclear repulsion energy :   22.514071294559 Hartree


  Symmetry Orbitals
  -----------------

  Number of orbitals in each symmetry:          26   12   12    4


  Symmetry  A1 ( 1)

    1     C_a      1s         1
    2     C_a      1s         2
    3     C_a      1s         3
    4     C_a      1s         4
    5     C_a      1s         5
    6     C_a      2pz        8
    7     C_a      2pz       11
    8     C_a      2pz       14
    9     C_a      2pz       17
   10     C_a      3d0       20
   11     C_a      3d2+      22
   12     C_a      3d0       25
   13     C_a      3d2+      27
   14     O_a      1s        28
   15     O_a      1s        29
   16     O_a      1s        30
   17     O_a      1s        31
   18     O_a      1s        32
   19     O_a      2pz       35
   20     O_a      2pz       38
   21     O_a      2pz       41
   22     O_a      2pz       44
   23     O_a      3d0       47
   24     O_a      3d2+      49
   25     O_a      3d0       52
   26     O_a      3d2+      54


  Symmetry  B1 ( 2)

   27     C_a      2px        6
   28     C_a      2px        9
   29     C_a      2px       12
   30     C_a      2px       15
   31     C_a      3d1+      21
   32     C_a      3d1+      26
   33     O_a      2px       33
   34     O_a      2px       36
   35     O_a      2px       39
   36     O_a      2px       42
   37     O_a      3d1+      48
   38     O_a      3d1+      53


  Symmetry  B2 ( 3)

   39     C_a      2py        7
   40     C_a      2py       10
   41     C_a      2py       13
   42     C_a      2py       16
   43     C_a      3d1-      19
   44     C_a      3d1-      24
   45     O_a      2py       34
   46     O_a      2py       37
   47     O_a      2py       40
   48     O_a      2py       43
   49     O_a      3d1-      46
   50     O_a      3d1-      51


  Symmetry  A2 ( 4)

   51     C_a      3d2-      18
   52     C_a      3d2-      23
   53     O_a      3d2-      45
   54     O_a      3d2-      50

  Symmetries of electric field:  B1 (2)  B2 (3)  A1 (1)

  Symmetries of magnetic field:  B2 (3)  B1 (2)  A2 (4)


                     .---------------------------------------.
                     | Starting in Integral Section (HERMIT) |
                     `---------------------------------------'



 ***************************************************************************************
 ****************** Output from **INTEGRALS input processing (HERMIT) ******************
 ***************************************************************************************


 - Using defaults, no **INTEGRALS input found

 Default print level:        1

 Calculation of one-electron Hamiltonian integrals.

 Center of mass  (bohr):      0.000000000000      0.000000000000      0.000000000000
 Operator center (bohr):      0.000000000000      0.000000000000      0.000000000000
 Gauge origin    (bohr):      0.000000000000      0.000000000000      0.000000000000
 Dipole origin   (bohr):      0.000000000000      0.000000000000      0.000000000000


     ************************************************************************
     ************************** Output from HERINT **************************
     ************************************************************************



                      Nuclear contribution to dipole moments
                      --------------------------------------

                 au               Debye          C m (/(10**-30)

      z      0.00232354         0.00590585         0.01969980


  Total CPU  time used in HERMIT:   0.06 seconds
  Total wall time used in HERMIT:   0.06 seconds


                        .----------------------------------.
                        | End of Integral Section (HERMIT) |
                        `----------------------------------'



                   .--------------------------------------------.
                   | Starting in Wave Function Section (SIRIUS) |
                   `--------------------------------------------'


 *** Output from Huckel module :

     Using EWMO model:          T
     Using EHT  model:          F
     Number of Huckel orbitals each symmetry:    6    2    2    0

 EWMO - Energy Weighted Maximum Overlap - is a Huckel type method,
        which normally is better than Extended Huckel Theory.
 Reference: Linderberg and Ohrn, Propagators in Quantum Chemistry (Wiley, 1973)

 Huckel EWMO eigenvalues for symmetry :  1
          -20.685999     -11.349525      -1.578830      -0.796795      -0.456115
           -0.137637

 Huckel EWMO eigenvalues for symmetry :  2
           -0.717188      -0.305912

 Huckel EWMO eigenvalues for symmetry :  3
           -0.717188      -0.305912

 **********************************************************************
 *SIRIUS* a direct, restricted step, second order MCSCF program       *
 **********************************************************************

 
     Date and time (Linux)  : Wed Jan 11 14:21:34 2023
     Host name              : cn023                                   

 Title lines from ".mol" input file:
     blah                                                                    
     blah                                                                    

 Print level on unit LUPRI =   2 is   0
 Print level on unit LUW4  =   2 is   5

@    Restricted, closed shell Hartree-Fock calculation.

@    Time-dependent Hartree-Fock calculation (random phase approximation).
 Fock matrices are calculated directly and in parallel without use of integrals on disk.

 Initial molecular orbitals are obtained according to
 ".MOSTART EWMO  " input option

     Wave function specification
     ============================
@    Wave function type        --- HF ---
@    Number of closed shell electrons          14
@    Number of electrons in active shells       0
@    Total charge of the molecule               0

@    Spin multiplicity and 2 M_S                1         0
@    Total number of symmetries                 4 (point group: C2v)
@    Reference state symmetry                   1 (irrep name : A1 )

     Orbital specifications
     ======================
@    Abelian symmetry species          All |    1    2    3    4
@                                          |  A1   B1   B2   A2 
                                       --- |  ---  ---  ---  ---
@    Total number of orbitals           54 |   26   12   12    4
@    Number of basis functions          54 |   26   12   12    4

      ** Automatic occupation of RHF orbitals **

      -- Initial occupation of symmetries is determined from extended Huckel guess.           
      -- Initial occupation of symmetries is :
@    Occupied SCF orbitals               7 |    5    1    1    0

     Maximum number of Fock   iterations      0
     Maximum number of DIIS   iterations     60
     Maximum number of QC-SCF iterations     60
     Threshold for SCF convergence     1.00D-05


 ***********************************************
 ***** DIIS acceleration of SCF iterations *****
 ***********************************************

 C1-DIIS algorithm; max error vectors =    8

 Automatic occupation of symmetries with  14 electrons.

 Iter     Total energy    Error norm  Delta(E)    SCF occupation
 -----------------------------------------------------------------------------
   1  Screening settings (-IFTHRS, JTDIIS, DIFDEN, times)   -6    1    T  3.36D-02  3.30D-02
@  1  -112.480250428       2.30D+00  -1.12D+02     5   1   1   0
      Virial theorem: -V/T =      2.005948
@    MULPOP   C_a     0.37; O_a    -0.37; 
   1  Level shift: doubly occupied orbital energies shifted by -2.00D-01
 -----------------------------------------------------------------------------
   2  Screening settings (-IFTHRS, JTDIIS, DIFDEN, times)   -6    2    T  9.24D-03  9.00D-03
@  2  -112.742071879       4.64D-01  -2.62D-01     5   1   1   0
      Virial theorem: -V/T =      1.999191
@    MULPOP   C_a     0.24; O_a    -0.24; 
   2  Level shift: doubly occupied orbital energies shifted by -5.00D-02
 -----------------------------------------------------------------------------
   3  Screening settings (-IFTHRS, JTDIIS, DIFDEN, times)  -10    3    F  9.61D-03  9.00D-03
@  3  -112.754005624       1.23D-01  -1.19D-02     5   1   1   0
      Virial theorem: -V/T =      2.001197
@    MULPOP   C_a     0.30; O_a    -0.30; 
   3  Level shift: doubly occupied orbital energies shifted by -2.50D-02
 -----------------------------------------------------------------------------
   4  Screening settings (-IFTHRS, JTDIIS, DIFDEN, times)  -10    4    T  9.19D-03  9.00D-03
@  4  -112.755127744       6.18D-02  -1.12D-03     5   1   1   0
      Virial theorem: -V/T =      2.002200
@    MULPOP   C_a     0.26; O_a    -0.26; 
   4  Level shift: doubly occupied orbital energies shifted by -2.50D-02
 -----------------------------------------------------------------------------
   5  Screening settings (-IFTHRS, JTDIIS, DIFDEN, times)  -10    5    T  9.13D-03  9.00D-03
@  5  -112.755325274       1.60D-02  -1.98D-04     5   1   1   0
      Virial theorem: -V/T =      2.001566
@    MULPOP   C_a     0.28; O_a    -0.28; 
   5  Level shift: doubly occupied orbital energies shifted by -1.25D-02
 -----------------------------------------------------------------------------
   6  Screening settings (-IFTHRS, JTDIIS, DIFDEN, times)  -10    6    T  9.18D-03  9.00D-03
@  6  -112.755343488       2.82D-03  -1.82D-05     5   1   1   0
      Virial theorem: -V/T =      2.001686
@    MULPOP   C_a     0.27; O_a    -0.27; 
 -----------------------------------------------------------------------------
   7  Screening settings (-IFTHRS, JTDIIS, DIFDEN, times)  -10    7    T  9.18D-03  9.00D-03
@  7  -112.755344201       4.57D-04  -7.12D-07     5   1   1   0
      Virial theorem: -V/T =      2.001695
@    MULPOP   C_a     0.27; O_a    -0.27; 
 -----------------------------------------------------------------------------
   8  Screening settings (-IFTHRS, JTDIIS, DIFDEN, times)  -10    8    T  9.12D-03  9.00D-03
@  8  -112.755344222       9.76D-05  -2.12D-08     5   1   1   0
      Virial theorem: -V/T =      2.001697
@    MULPOP   C_a     0.27; O_a    -0.27; 
 -----------------------------------------------------------------------------
   9  Screening settings (-IFTHRS, JTDIIS, DIFDEN, times)  -10    9    T  9.16D-03  9.00D-03
@  9  -112.755344223       8.70D-06  -9.55D-10     5   1   1   0

@ *** DIIS converged in   9 iterations !
@     Converged SCF energy, gradient:   -112.755344222766    8.70D-06
    - total time used in SIRFCK :              0.00 seconds


 *** SCF orbital energy analysis ***

 Only the 20 lowest virtual orbital energies printed in each symmetry.

 Number of electrons :   14
 Orbital occupations :    5    1    1    0

 Sym       Hartree-Fock orbital energies

1 A1    -20.67798198   -11.37324023    -1.52988511    -0.80857207    -0.55487461
          0.08123712     0.10567329     0.22521153     0.33433130     0.43389502
          0.52265357     0.69451729     0.94205996     1.03034845     1.05437953
          1.40878575     1.65296930     1.85245837     2.19303632     2.70027023
          3.54969900     4.01247522    19.66085854    24.08785289    34.86626092

2 B1     -0.64126359     0.07901932     0.17083790     0.24789950     0.60305045
          0.74544471     1.20589094     1.66846136     1.96610348     3.67020388
         22.69147090    39.35596054

3 B2     -0.64126359     0.07901932     0.17083790     0.24789950     0.60305045
          0.74544471     1.20589094     1.66846136     1.96610348     3.67020388
         22.69147090    39.35596054

4 A2      0.43389502     1.05437953     1.65296930     3.54969900

    E(LUMO) :     0.07901932 au (symmetry 2)
  - E(HOMO) :    -0.55487461 au (symmetry 1)
  ------------------------------------------
    gap     :     0.63389393 au

 --- Writing SIRIFC interface file

 CPU and wall time for SCF :       0.118       0.121


                       .-----------------------------------.
                       | --- Final results from SIRIUS --- |
                       `-----------------------------------'


@    Spin multiplicity:           1
@    Spatial symmetry:            1 ( irrep  A1  in C2v )
@    Total charge of molecule:    0

@    Final HF energy:            -112.755344222766                 
@    Nuclear repulsion:            22.514071294559
@    Electronic energy:          -135.269415517325

@    Final gradient norm:           0.000008701814

 
     Date and time (Linux)  : Wed Jan 11 14:21:34 2023
     Host name              : cn023                                   

File label for MO orbitals:  11Jan23   FOCKDIIS

 (Only coefficients > 0.0100 are printed.)

 Molecular orbitals for symmetry species 1  (A1 )
 ------------------------------------------------

    Orbital         1        2        3        4        5        6        7
   1 C_a :1s     0.0001   1.0024  -0.0083   0.0063  -0.0068   0.0144  -0.0128
   2 C_a :1s     0.0007   0.0109   0.4605   0.6028   0.5731   0.1534   0.1198
   3 C_a :1s     0.0052  -0.0062  -0.1746  -0.1095   0.1333  -0.9919  -0.0677
   5 C_a :1s     0.0011   0.0002   0.0101   0.0305   0.0260  -3.2814  -0.9565
   6 C_a :2pz    0.0004   0.0065   0.3265   0.2045  -0.6942  -0.1438  -0.1296
   7 C_a :2pz    0.0037  -0.0037  -0.1558  -0.0878   0.1391  -0.7169  -0.3509
   9 C_a :2pz    0.0002  -0.0002   0.0007   0.0055  -0.0108  -1.2154   1.2072
  10 C_a :3d0   -0.0006   0.0015   0.0453   0.0244  -0.0379  -0.0210  -0.0385
  12 C_a :3d0    0.0014  -0.0010  -0.0182  -0.0014   0.0072  -0.1677   0.0244
  14 O_a :1s     1.0013  -0.0001  -0.0077  -0.0021  -0.0026  -0.0102  -0.0114
  15 O_a :1s     0.0052   0.0020   0.8216  -0.4657  -0.0756   0.0649  -0.0917
  16 O_a :1s    -0.0098  -0.0043  -0.1030  -0.1507   0.0585   0.4389   0.1933
  18 O_a :1s    -0.0023   0.0003  -0.0348  -0.1148   0.0810   3.4458   0.3225
  19 O_a :2pz   -0.0024  -0.0010  -0.2354  -0.7251   0.3683   0.0788   0.0334
  20 O_a :2pz    0.0038   0.0049   0.0963   0.1189  -0.0718  -0.2656  -0.0935
  22 O_a :2pz    0.0002  -0.0003   0.0217   0.0093  -0.0076  -0.7403  -0.5807
  23 O_a :3d0    0.0005   0.0006   0.0227   0.0225  -0.0159   0.0024   0.0004
  25 O_a :3d0   -0.0006  -0.0025  -0.0163  -0.0065   0.0201   0.0400   0.0279

    Orbital         8        9       10       11       12       13       14
   1 C_a :1s     0.0218  -0.0347  -0.0000   0.0269  -0.0033   0.0710   0.4741
   2 C_a :1s    -0.0823  -0.0544  -0.0000   0.3681  -0.3281   0.9179   2.4979
   3 C_a :1s    -1.2465   2.7918  -0.0000   2.5669  -2.7399  -1.7410  -5.9517
   4 C_a :1s     0.0036  -0.0105   0.0000   0.0034   0.0100   0.0072   0.1315
   5 C_a :1s     0.1200   3.8759  -0.0000   1.7754  -2.0503  -0.1008  -1.3319
   6 C_a :2pz   -0.0186  -0.0308  -0.0000   0.0306   0.3397   0.6854  -1.1142
   7 C_a :2pz    0.2332   1.3882   0.0000   1.5969  -3.9812  -0.1754  -0.8297
   9 C_a :2pz    0.8516   1.4970  -0.0000  -0.2281  -0.4007   0.3026  -0.5602
  10 C_a :3d0   -0.0169   0.0727  -0.0000   0.0421  -0.0709  -0.1504   0.2506
  11 C_a :3d2+  -0.0000  -0.0000   0.0293   0.0000   0.0000   0.0000  -0.0000
  12 C_a :3d0    0.1860   0.6581   0.0000  -0.8195  -1.8566   0.5112  -0.8414
  13 C_a :3d2+   0.0000   0.0000  -1.0140  -0.0000  -0.0000  -0.0000   0.0000
  14 O_a :1s     0.0029   0.0323   0.0000   0.0039  -0.1097  -0.0274   0.0104
  15 O_a :1s     0.0523   0.4143   0.0000  -0.0657  -0.1912  -0.3685   0.3400
  16 O_a :1s    -0.0944  -0.5630  -0.0000  -0.2744   3.7427  -0.2435   1.2883
  17 O_a :1s     0.0007   0.0073   0.0000   0.0025  -0.0277  -0.0050   0.0012
  18 O_a :1s     0.3576  -6.8586   0.0000  -3.8334   3.1810   0.8347   3.5997
  19 O_a :2pz    0.0912   0.0281  -0.0000   0.3124  -0.0533   0.2361  -0.4202
  20 O_a :2pz    0.0241   0.7065   0.0000   0.7378  -0.6986   0.1136  -0.3443
  22 O_a :2pz   -2.0548   0.8330  -0.0000   1.5053   0.1028  -1.0613  -0.8368
  23 O_a :3d0   -0.0257  -0.0004   0.0000  -0.0113   0.0415   0.0306  -0.0277
  24 O_a :3d2+   0.0000   0.0000  -0.0227  -0.0000   0.0000  -0.0000   0.0000
  25 O_a :3d0    0.0877  -0.0546   0.0000  -0.1265  -0.0027   0.8145   0.1752

    Orbital        15
  11 C_a :3d2+  -0.0783
  13 C_a :3d2+   0.5840
  24 O_a :3d2+   0.0199
  26 O_a :3d2+  -1.1372

 Molecular orbitals for symmetry species 2  (B1 )
 ------------------------------------------------

    Orbital         1        2        3        4        5        6        7
   1 C_a :2px   -0.4354  -0.2432   0.6701   0.1666  -0.3673   1.2396   0.8678
   2 C_a :2px    0.1076  -0.0480   0.5735  -0.2991  -0.5147  -2.6327  -0.2378
   4 C_a :2px    0.0053  -1.3026  -0.4600  -1.3775  -0.6363   0.0507   0.4480
   5 C_a :3d1+  -0.0562   0.0266   0.0144  -0.0177   0.0099  -0.1050  -0.1842
   6 C_a :3d1+   0.0109  -0.0526  -0.0368  -0.3413  -1.6498  -0.6943   0.3087
   7 O_a :2px   -0.7983   0.2759  -0.3272  -0.3444   0.2588   0.0078  -0.6402
   8 O_a :2px    0.0004   0.0465  -0.1547  -0.0768   0.7940   0.6240   0.7271
  10 O_a :2px   -0.0375   0.5920  -0.4405   2.1633   0.9891   0.8822  -0.8328
  11 O_a :3d1+   0.0275   0.0037  -0.0194   0.0227   0.0259   0.0019  -0.0144
  12 O_a :3d1+   0.0231  -0.0022   0.0272  -0.1144  -0.0763  -0.5433   0.9816

    Orbital         8        9       10       11
   1 C_a :2px   -0.6365   0.8666   0.0747  -0.5885
   2 C_a :2px   -0.9193   0.7558  -0.5512   0.2888
   3 C_a :2px    0.0068  -0.0075   0.0043   1.0430
   4 C_a :2px   -0.0640  -0.1430  -0.1789  -0.0388
   5 C_a :3d1+   0.1507   1.4680   0.3407  -0.1052
   6 C_a :3d1+  -1.0714   0.1415  -0.4005  -0.0656
   7 O_a :2px   -1.3616  -0.0115  -0.1508  -0.0112
   8 O_a :2px    2.7413  -1.4518   0.3318   0.1993
  10 O_a :2px    0.2688  -0.1174   0.4501   0.0172
  11 O_a :3d1+  -0.0145  -0.0792   1.2344  -0.0150
  12 O_a :3d1+  -0.8338   1.3361  -0.7213  -0.1827

 Molecular orbitals for symmetry species 3  (B2 )
 ------------------------------------------------

    Orbital         1        2        3        4        5        6        7
   1 C_a :2py   -0.4354  -0.2432   0.6701   0.1666  -0.3673   1.2396   0.8678
   2 C_a :2py    0.1076  -0.0480   0.5735  -0.2991  -0.5147  -2.6327  -0.2378
   4 C_a :2py    0.0053  -1.3026  -0.4600  -1.3775  -0.6363   0.0507   0.4480
   5 C_a :3d1-  -0.0562   0.0266   0.0144  -0.0177   0.0099  -0.1050  -0.1842
   6 C_a :3d1-   0.0109  -0.0526  -0.0368  -0.3413  -1.6498  -0.6943   0.3087
   7 O_a :2py   -0.7983   0.2759  -0.3272  -0.3444   0.2588   0.0078  -0.6402
   8 O_a :2py    0.0004   0.0465  -0.1547  -0.0768   0.7940   0.6240   0.7271
  10 O_a :2py   -0.0375   0.5920  -0.4405   2.1633   0.9891   0.8822  -0.8328
  11 O_a :3d1-   0.0275   0.0037  -0.0194   0.0227   0.0259   0.0019  -0.0144
  12 O_a :3d1-   0.0231  -0.0022   0.0272  -0.1144  -0.0763  -0.5433   0.9816

    Orbital         8        9       10       11
   1 C_a :2py   -0.6365   0.8666   0.0747  -0.5885
   2 C_a :2py   -0.9193   0.7558  -0.5512   0.2888
   3 C_a :2py    0.0068  -0.0075   0.0043   1.0430
   4 C_a :2py   -0.0640  -0.1430  -0.1789  -0.0388
   5 C_a :3d1-   0.1507   1.4680   0.3407  -0.1052
   6 C_a :3d1-  -1.0714   0.1415  -0.4005  -0.0656
   7 O_a :2py   -1.3616  -0.0115  -0.1508  -0.0112
   8 O_a :2py    2.7413  -1.4518   0.3318   0.1993
  10 O_a :2py    0.2688  -0.1174   0.4501   0.0172
  11 O_a :3d1-  -0.0145  -0.0792   1.2344  -0.0150
  12 O_a :3d1-  -0.8338   1.3361  -0.7213  -0.1827

 Molecular orbitals for symmetry species 4  (A2 )
 ------------------------------------------------

    Orbital         1        2        3        4
   1 C_a :3d2-   0.0293  -0.0783   1.1651  -0.0718
   2 C_a :3d2-  -1.0140   0.5840  -0.4419   0.2105
   3 O_a :3d2-  -0.0227   0.0199   0.0406   1.1850
   4 O_a :3d2-   0.0047  -1.1372  -0.2627  -0.6780

  Total CPU  time used in SIRIUS :   0.13 seconds
  Total wall time used in SIRIUS :   0.13 seconds

 
     Date and time (Linux)  : Wed Jan 11 14:21:34 2023
     Host name              : cn023                                   


                     .---------------------------------------.
                     | End of Wave Function Section (SIRIUS) |
                     `---------------------------------------'



                 .------------------------------------------------.
                 | Starting in Dynamic Property Section (RESPONS) |
                 `------------------------------------------------'


 ----------------------------------------------------------------------------------------
  RESPONSE  -  an MCSCF, MC-srDFT, DFT, SOPPA and SOPPA-srDFT response property program
 ----------------------------------------------------------------------------------------


 -------- OUTPUT FROM RESPONSE INPUT PROCESSING --------




 Linear Response calculation
 ---------------------------

 Print level                                    : IPRLR  =   2
 Maximum number of iterations                   : MAXITL =  60
 Threshold for relative convergence             : THCLR  = 1.000D-03
 Maximum iterations in optimal orbital algorithm: MAXITO =   5

  9 B-frequencies  0.000000D+00  2.015931D-02  4.031862D-02  6.047794D-02  8.063725D-02
  1.007966D-01  1.209559D-01  1.411152D-01  1.612745D-01

    1 second order properties calculated with symmetry no.    1 and labels:

          ZDIPLEN 

    1 second order properties calculated with symmetry no.    2 and labels:

          XDIPLEN 

    1 second order properties calculated with symmetry no.    3 and labels:

          YDIPLEN 


   SCF energy         :     -112.755344222766382
 -- inactive part     :     -135.269415517325484
 -- nuclear repulsion :       22.514071294559098


                     ***************************************
                     *** RHF response calculation (TDHF) ***
                     ***************************************

 ----------------------------------------------------------------
 ----- Linear response calculation
 ----- Symmetry of excitation/property operator(s)    1  ( A1 )
 ----------------------------------------------------------------

 Number of excitations of this symmetry            0
 Number of response properties of this symmetry    1
 Number of C6/C8 properties of this symmetry       0


 Perturbation symmetry.     KSYMOP:           1
 Perturbation spin symmetry.TRPLET:           F
 Orbital variables.         KZWOPT:         127
 Configuration variables.   KZCONF:           0
 Total number of variables. KZVAR :         127


 RSPLR -- linear response calculation for symmetry 1  ( A1 )
 RSPLR -- operator label : ZDIPLEN 
 RSPLR -- operator spin  :   0
 RSPLR -- frequencies    :     0.000000  0.020159  0.040319  0.060478  0.080637
                               0.100797  0.120956  0.141115  0.161274



 ---  SOLVING SETS OF LINEAR EQUATIONS FOR LINEAR RESPONSE PROPERTIES ---

 Operator symmetry = 1  ( A1 ); triplet =   F


 ** RSPCTL MICROITERATION NUMBER    1

       No.  Residual tot.,    conf., and orb.    Bnorm      Frequency 
      ----------------------------------------------------------------
         1    2.76320D+00  0.00D+00  2.76D+00  2.64D+00    0.00000D+00
         2    2.76577D+00  0.00D+00  2.77D+00  2.65D+00    2.01593D-02
         3    2.77350D+00  0.00D+00  2.77D+00  2.67D+00    4.03186D-02
         4    2.78651D+00  0.00D+00  2.79D+00  2.70D+00    6.04779D-02
         5    2.80496D+00  0.00D+00  2.80D+00  2.74D+00    8.06372D-02
         6    2.82911D+00  0.00D+00  2.83D+00  2.79D+00    1.00797D-01
         7    2.85932D+00  0.00D+00  2.86D+00  2.85D+00    1.20956D-01
         8    2.89604D+00  0.00D+00  2.90D+00  2.94D+00    1.41115D-01
         9    2.93984D+00  0.00D+00  2.94D+00  3.03D+00    1.61274D-01

 ** RSPCTL MICROITERATION NUMBER    2

       No.  Residual tot.,    conf., and orb.    Bnorm      Frequency 
      ----------------------------------------------------------------
         1    4.89944D-01  0.00D+00  4.90D-01  3.12D+00    0.00000D+00
         2    4.90758D-01  0.00D+00  4.91D-01  3.13D+00    2.01593D-02
         3    4.93217D-01  0.00D+00  4.93D-01  3.15D+00    4.03186D-02
         4    4.97368D-01  0.00D+00  4.97D-01  3.19D+00    6.04779D-02
         5    5.03292D-01  0.00D+00  5.03D-01  3.24D+00    8.06372D-02
         6    5.11110D-01  0.00D+00  5.11D-01  3.30D+00    1.00797D-01
         7    5.20989D-01  0.00D+00  5.21D-01  3.39D+00    1.20956D-01
         8    5.33148D-01  0.00D+00  5.33D-01  3.49D+00    1.41115D-01
         9    5.47877D-01  0.00D+00  5.48D-01  3.62D+00    1.61274D-01

 ** RSPCTL MICROITERATION NUMBER    3

       No.  Residual tot.,    conf., and orb.    Bnorm      Frequency 
      ----------------------------------------------------------------
         1    5.52195D-02  0.00D+00  5.52D-02  3.14D+00    0.00000D+00
         2    5.53636D-02  0.00D+00  5.54D-02  3.15D+00    2.01593D-02
         3    5.57993D-02  0.00D+00  5.58D-02  3.17D+00    4.03186D-02
         4    5.65371D-02  0.00D+00  5.65D-02  3.21D+00    6.04779D-02
         5    5.75952D-02  0.00D+00  5.76D-02  3.26D+00    8.06372D-02
         6    5.90007D-02  0.00D+00  5.90D-02  3.33D+00    1.00797D-01
         7    6.07909D-02  0.00D+00  6.08D-02  3.41D+00    1.20956D-01
         8    6.30161D-02  0.00D+00  6.30D-02  3.52D+00    1.41115D-01
         9    6.57429D-02  0.00D+00  6.57D-02  3.64D+00    1.61274D-01

 ** RSPCTL MICROITERATION NUMBER    4

       No.  Residual tot.,    conf., and orb.    Bnorm      Frequency 
      ----------------------------------------------------------------
         1    5.22391D-03  0.00D+00  5.22D-03  3.14D+00    0.00000D+00
         2    5.24366D-03  0.00D+00  5.24D-03  3.15D+00    2.01593D-02
         3    5.30346D-03  0.00D+00  5.30D-03  3.17D+00    4.03186D-02
         4    5.40499D-03  0.00D+00  5.40D-03  3.21D+00    6.04779D-02
         5    5.55120D-03  0.00D+00  5.55D-03  3.26D+00    8.06372D-02
         6    5.74643D-03  0.00D+00  5.75D-03  3.33D+00    1.00797D-01
         7    5.99678D-03  0.00D+00  6.00D-03  3.41D+00    1.20956D-01
         8    6.31048D-03  0.00D+00  6.31D-03  3.52D+00    1.41115D-01
         9    6.69854D-03  0.00D+00  6.70D-03  3.64D+00    1.61274D-01

 ** RSPCTL MICROITERATION NUMBER    5

       No.  Residual tot.,    conf., and orb.    Bnorm      Frequency 
      ----------------------------------------------------------------
         1    2.85115D-04  0.00D+00  2.85D-04  3.14D+00    0.00000D+00
         2    2.87592D-04  0.00D+00  2.88D-04  3.15D+00    2.01593D-02
         3    2.95071D-04  0.00D+00  2.95D-04  3.17D+00    4.03186D-02
         4    3.07702D-04  0.00D+00  3.08D-04  3.21D+00    6.04779D-02
         5    3.25763D-04  0.00D+00  3.26D-04  3.26D+00    8.06372D-02
         6    3.49690D-04  0.00D+00  3.50D-04  3.33D+00    1.00797D-01
         7    3.80126D-04  0.00D+00  3.80D-04  3.41D+00    1.20956D-01
         8    4.17983D-04  0.00D+00  4.18D-04  3.52D+00    1.41115D-01
         9    4.64527D-04  0.00D+00  4.65D-04  3.64D+00    1.61274D-01

 *** THE REQUESTED    9 SOLUTION VECTORS CONVERGED

 Convergence of RSP solution vectors, threshold = 1.00D-03
 ---------------------------------------------------------------
 (dimension of paired reduced space:   90)
 RSP solution vector no.    1; norm of residual   9.08D-05
 RSP solution vector no.    2; norm of residual   9.14D-05
 RSP solution vector no.    3; norm of residual   9.31D-05
 RSP solution vector no.    4; norm of residual   9.60D-05
 RSP solution vector no.    5; norm of residual   1.00D-04
 RSP solution vector no.    6; norm of residual   1.05D-04
 RSP solution vector no.    7; norm of residual   1.11D-04
 RSP solution vector no.    8; norm of residual   1.19D-04
 RSP solution vector no.    9; norm of residual   1.27D-04

 *** RSPCTL MICROITERATIONS CONVERGED


           Final output of second order properties from linear response
           ------------------------------------------------------------


@ Spin symmetry of operators: singlet

 Note that minus the linear response function: - << A; B >>(omega) is printed.
 The results are of quadratic accuracy using Sellers formula.

@ FREQUENCY INDEPENDENT SECOND ORDER PROPERTIES

@ -<< ZDIPLEN  ; ZDIPLEN  >> =  1.444665035716E+01

@ FREQUENCY DEPENDENT SECOND ORDER PROPERTIES WITH FREQUENCY :

@    a.u.:  2.0159312D-02
@    cm-1:  4.4244576D+03
@    eV  :  5.4856280D-01
@  kJ/mol:  5.2928267D+01
@    nm  :  2.2601640D+03

@ -<< ZDIPLEN  ; ZDIPLEN  >> =  1.446318243982E+01

@ FREQUENCY DEPENDENT SECOND ORDER PROPERTIES WITH FREQUENCY :

@    a.u.:  4.0318625D-02
@    cm-1:  8.8489153D+03
@    eV  :  1.0971256D+00
@  kJ/mol:  1.0585653D+02
@    nm  :  1.1300820D+03

@ -<< ZDIPLEN  ; ZDIPLEN  >> =  1.451306516063E+01

@ FREQUENCY DEPENDENT SECOND ORDER PROPERTIES WITH FREQUENCY :

@    a.u.:  6.0477937D-02
@    cm-1:  1.3273373D+04
@    eV  :  1.6456884D+00
@  kJ/mol:  1.5878480D+02
@    nm  :  7.5338801D+02

@ -<< ZDIPLEN  ; ZDIPLEN  >> =  1.459717182375E+01

@ FREQUENCY DEPENDENT SECOND ORDER PROPERTIES WITH FREQUENCY :

@    a.u.:  8.0637250D-02
@    cm-1:  1.7697831D+04
@    eV  :  2.1942512D+00
@  kJ/mol:  2.1171307D+02
@    nm  :  5.6504101D+02

@ -<< ZDIPLEN  ; ZDIPLEN  >> =  1.471700557254E+01

@ FREQUENCY DEPENDENT SECOND ORDER PROPERTIES WITH FREQUENCY :

@    a.u.:  1.0079656D-01
@    cm-1:  2.2122288D+04
@    eV  :  2.7428140D+00
@  kJ/mol:  2.6464133D+02
@    nm  :  4.5203281D+02

@ -<< ZDIPLEN  ; ZDIPLEN  >> =  1.487477579570E+01

@ FREQUENCY DEPENDENT SECOND ORDER PROPERTIES WITH FREQUENCY :

@    a.u.:  1.2095587D-01
@    cm-1:  2.6546746D+04
@    eV  :  3.2913768D+00
@  kJ/mol:  3.1756960D+02
@    nm  :  3.7669400D+02

@ -<< ZDIPLEN  ; ZDIPLEN  >> =  1.507351586057E+01

@ FREQUENCY DEPENDENT SECOND ORDER PROPERTIES WITH FREQUENCY :

@    a.u.:  1.4111519D-01
@    cm-1:  3.0971203D+04
@    eV  :  3.8399396D+00
@  kJ/mol:  3.7049787D+02
@    nm  :  3.2288058D+02

@ -<< ZDIPLEN  ; ZDIPLEN  >> =  1.531725517853E+01

@ FREQUENCY DEPENDENT SECOND ORDER PROPERTIES WITH FREQUENCY :

@    a.u.:  1.6127450D-01
@    cm-1:  3.5395661D+04
@    eV  :  4.3885024D+00
@  kJ/mol:  4.2342613D+02
@    nm  :  2.8252050D+02

@ -<< ZDIPLEN  ; ZDIPLEN  >> =  1.561126620452E+01


 Time used in linear response calculation is      0.14 CPU seconds for symmetry 1
 ----------------------------------------------------------------
 ----- Linear response calculation
 ----- Symmetry of excitation/property operator(s)    2  ( B1 )
 ----------------------------------------------------------------

 Number of excitations of this symmetry            0
 Number of response properties of this symmetry    1
 Number of C6/C8 properties of this symmetry       0


 Perturbation symmetry.     KSYMOP:           2
 Perturbation spin symmetry.TRPLET:           F
 Orbital variables.         KZWOPT:          80
 Configuration variables.   KZCONF:           0
 Total number of variables. KZVAR :          80


 RSPLR -- linear response calculation for symmetry 2  ( B1 )
 RSPLR -- operator label : XDIPLEN 
 RSPLR -- operator spin  :   0
 RSPLR -- frequencies    :     0.000000  0.020159  0.040319  0.060478  0.080637
                               0.100797  0.120956  0.141115  0.161274



 ---  SOLVING SETS OF LINEAR EQUATIONS FOR LINEAR RESPONSE PROPERTIES ---

 Operator symmetry = 2  ( B1 ); triplet =   F

RSPORT:    1 out of    9 new trial vectors linear dependent

 ** RSPCTL MICROITERATION NUMBER    1

       No.  Residual tot.,    conf., and orb.    Bnorm      Frequency 
      ----------------------------------------------------------------
         1    8.65896D-01  0.00D+00  8.66D-01  2.72D+00    0.00000D+00
         2    8.67834D-01  0.00D+00  8.68D-01  2.73D+00    2.01593D-02
         3    8.73735D-01  0.00D+00  8.74D-01  2.75D+00    4.03186D-02
         4    8.83867D-01  0.00D+00  8.84D-01  2.80D+00    6.04779D-02
         5    8.98705D-01  0.00D+00  8.99D-01  2.87D+00    8.06372D-02
         6    9.18989D-01  0.00D+00  9.19D-01  2.96D+00    1.00797D-01
         7    9.45799D-01  0.00D+00  9.46D-01  3.08D+00    1.20956D-01
         8    9.80700D-01  0.00D+00  9.81D-01  3.23D+00    1.41115D-01
         9    1.02596D+00  0.00D+00  1.03D+00  3.43D+00    1.61274D-01

 ** RSPCTL MICROITERATION NUMBER    2

       No.  Residual tot.,    conf., and orb.    Bnorm      Frequency 
      ----------------------------------------------------------------
         1    1.56720D-01  0.00D+00  1.57D-01  2.79D+00    0.00000D+00
         2    1.57183D-01  0.00D+00  1.57D-01  2.80D+00    2.01593D-02
         3    1.58596D-01  0.00D+00  1.59D-01  2.83D+00    4.03186D-02
         4    1.61035D-01  0.00D+00  1.61D-01  2.88D+00    6.04779D-02
         5    1.64640D-01  0.00D+00  1.65D-01  2.96D+00    8.06372D-02
         6    1.69638D-01  0.00D+00  1.70D-01  3.07D+00    1.00797D-01
         7    1.76383D-01  0.00D+00  1.76D-01  3.22D+00    1.20956D-01
         8    1.85434D-01  0.00D+00  1.85D-01  3.40D+00    1.41115D-01
         9    1.97688D-01  0.00D+00  1.98D-01  3.65D+00    1.61274D-01

 ** RSPCTL MICROITERATION NUMBER    3

       No.  Residual tot.,    conf., and orb.    Bnorm      Frequency 
      ----------------------------------------------------------------
         1    1.26993D-02  0.00D+00  1.27D-02  2.79D+00    0.00000D+00
         2    1.27470D-02  0.00D+00  1.27D-02  2.80D+00    2.01593D-02
         3    1.28930D-02  0.00D+00  1.29D-02  2.83D+00    4.03186D-02
         4    1.31461D-02  0.00D+00  1.31D-02  2.89D+00    6.04779D-02
         5    1.35221D-02  0.00D+00  1.35D-02  2.97D+00    8.06372D-02
         6    1.40467D-02  0.00D+00  1.40D-02  3.07D+00    1.00797D-01
         7    1.47592D-02  0.00D+00  1.48D-02  3.22D+00    1.20956D-01
         8    1.57202D-02  0.00D+00  1.57D-02  3.41D+00    1.41115D-01
         9    1.70256D-02  0.00D+00  1.70D-02  3.66D+00    1.61274D-01

 ** RSPCTL MICROITERATION NUMBER    4

       No.  Residual tot.,    conf., and orb.    Bnorm      Frequency 
      ----------------------------------------------------------------
         1    7.37360D-04  0.00D+00  7.37D-04  2.79D+00    0.00000D+00
         2    7.45430D-04  0.00D+00  7.45D-04  2.80D+00    2.01593D-02
         3    7.69993D-04  0.00D+00  7.70D-04  2.83D+00    4.03186D-02
         4    8.12149D-04  0.00D+00  8.12D-04  2.89D+00    6.04779D-02
         5    8.73922D-04  0.00D+00  8.74D-04  2.97D+00    8.06372D-02
         6    9.58563D-04  0.00D+00  9.59D-04  3.07D+00    1.00797D-01
         7    1.07106D-03  0.00D+00  1.07D-03  3.22D+00    1.20956D-01
         8    1.21902D-03  0.00D+00  1.22D-03  3.41D+00    1.41115D-01
         9    1.41412D-03  0.00D+00  1.41D-03  3.66D+00    1.61274D-01

 *** THE REQUESTED    9 SOLUTION VECTORS CONVERGED

 Convergence of RSP solution vectors, threshold = 1.00D-03
 ---------------------------------------------------------------
 (dimension of paired reduced space:   70)
 RSP solution vector no.    1; norm of residual   2.64D-04
 RSP solution vector no.    2; norm of residual   2.66D-04
 RSP solution vector no.    3; norm of residual   2.72D-04
 RSP solution vector no.    4; norm of residual   2.81D-04
 RSP solution vector no.    5; norm of residual   2.95D-04
 RSP solution vector no.    6; norm of residual   3.12D-04
 RSP solution vector no.    7; norm of residual   3.33D-04
 RSP solution vector no.    8; norm of residual   3.58D-04
 RSP solution vector no.    9; norm of residual   3.86D-04

 *** RSPCTL MICROITERATIONS CONVERGED


           Final output of second order properties from linear response
           ------------------------------------------------------------


@ Spin symmetry of operators: singlet

 Note that minus the linear response function: - << A; B >>(omega) is printed.
 The results are of quadratic accuracy using Sellers formula.

@ FREQUENCY INDEPENDENT SECOND ORDER PROPERTIES

@ -<< XDIPLEN  ; XDIPLEN  >> =  1.095257943235E+01

@ FREQUENCY DEPENDENT SECOND ORDER PROPERTIES WITH FREQUENCY :

@    a.u.:  2.0159312D-02
@    cm-1:  4.4244576D+03
@    eV  :  5.4856280D-01
@  kJ/mol:  5.2928267D+01
@    nm  :  2.2601640D+03

@ -<< XDIPLEN  ; XDIPLEN  >> =  1.096892839081E+01

@ FREQUENCY DEPENDENT SECOND ORDER PROPERTIES WITH FREQUENCY :

@    a.u.:  4.0318625D-02
@    cm-1:  8.8489153D+03
@    eV  :  1.0971256D+00
@  kJ/mol:  1.0585653D+02
@    nm  :  1.1300820D+03

@ -<< XDIPLEN  ; XDIPLEN  >> =  1.101852299029E+01

@ FREQUENCY DEPENDENT SECOND ORDER PROPERTIES WITH FREQUENCY :

@    a.u.:  6.0477937D-02
@    cm-1:  1.3273373D+04
@    eV  :  1.6456884D+00
@  kJ/mol:  1.5878480D+02
@    nm  :  7.5338801D+02

@ -<< XDIPLEN  ; XDIPLEN  >> =  1.110306537712E+01

@ FREQUENCY DEPENDENT SECOND ORDER PROPERTIES WITH FREQUENCY :

@    a.u.:  8.0637250D-02
@    cm-1:  1.7697831D+04
@    eV  :  2.1942512D+00
@  kJ/mol:  2.1171307D+02
@    nm  :  5.6504101D+02

@ -<< XDIPLEN  ; XDIPLEN  >> =  1.122560220218E+01

@ FREQUENCY DEPENDENT SECOND ORDER PROPERTIES WITH FREQUENCY :

@    a.u.:  1.0079656D-01
@    cm-1:  2.2122288D+04
@    eV  :  2.7428140D+00
@  kJ/mol:  2.6464133D+02
@    nm  :  4.5203281D+02

@ -<< XDIPLEN  ; XDIPLEN  >> =  1.139089032392E+01

@ FREQUENCY DEPENDENT SECOND ORDER PROPERTIES WITH FREQUENCY :

@    a.u.:  1.2095587D-01
@    cm-1:  2.6546746D+04
@    eV  :  3.2913768D+00
@  kJ/mol:  3.1756960D+02
@    nm  :  3.7669400D+02

@ -<< XDIPLEN  ; XDIPLEN  >> =  1.160603208327E+01

@ FREQUENCY DEPENDENT SECOND ORDER PROPERTIES WITH FREQUENCY :

@    a.u.:  1.4111519D-01
@    cm-1:  3.0971203D+04
@    eV  :  3.8399396D+00
@  kJ/mol:  3.7049787D+02
@    nm  :  3.2288058D+02

@ -<< XDIPLEN  ; XDIPLEN  >> =  1.188156626705E+01

@ FREQUENCY DEPENDENT SECOND ORDER PROPERTIES WITH FREQUENCY :

@    a.u.:  1.6127450D-01
@    cm-1:  3.5395661D+04
@    eV  :  4.3885024D+00
@  kJ/mol:  4.2342613D+02
@    nm  :  2.8252050D+02

@ -<< XDIPLEN  ; XDIPLEN  >> =  1.223339168228E+01


 Time used in linear response calculation is      0.11 CPU seconds for symmetry 2
 ----------------------------------------------------------------
 ----- Linear response calculation
 ----- Symmetry of excitation/property operator(s)    3  ( B2 )
 ----------------------------------------------------------------

 Number of excitations of this symmetry            0
 Number of response properties of this symmetry    1
 Number of C6/C8 properties of this symmetry       0


 Perturbation symmetry.     KSYMOP:           3
 Perturbation spin symmetry.TRPLET:           F
 Orbital variables.         KZWOPT:          80
 Configuration variables.   KZCONF:           0
 Total number of variables. KZVAR :          80


 RSPLR -- linear response calculation for symmetry 3  ( B2 )
 RSPLR -- operator label : YDIPLEN 
 RSPLR -- operator spin  :   0
 RSPLR -- frequencies    :     0.000000  0.020159  0.040319  0.060478  0.080637
                               0.100797  0.120956  0.141115  0.161274



 ---  SOLVING SETS OF LINEAR EQUATIONS FOR LINEAR RESPONSE PROPERTIES ---

 Operator symmetry = 3  ( B2 ); triplet =   F

RSPORT:    1 out of    9 new trial vectors linear dependent

 ** RSPCTL MICROITERATION NUMBER    1

       No.  Residual tot.,    conf., and orb.    Bnorm      Frequency 
      ----------------------------------------------------------------
         1    8.72498D-01  0.00D+00  8.72D-01  2.72D+00    0.00000D+00
         2    8.74450D-01  0.00D+00  8.74D-01  2.73D+00    2.01593D-02
         3    8.80393D-01  0.00D+00  8.80D-01  2.76D+00    4.03186D-02
         4    8.90593D-01  0.00D+00  8.91D-01  2.80D+00    6.04779D-02
         5    9.05529D-01  0.00D+00  9.06D-01  2.87D+00    8.06372D-02
         6    9.25937D-01  0.00D+00  9.26D-01  2.96D+00    1.00797D-01
         7    9.52898D-01  0.00D+00  9.53D-01  3.08D+00    1.20956D-01
         8    9.87973D-01  0.00D+00  9.88D-01  3.23D+00    1.41115D-01
         9    1.03343D+00  0.00D+00  1.03D+00  3.43D+00    1.61274D-01

 ** RSPCTL MICROITERATION NUMBER    2

       No.  Residual tot.,    conf., and orb.    Bnorm      Frequency 
      ----------------------------------------------------------------
         1    1.54430D-01  0.00D+00  1.54D-01  2.79D+00    0.00000D+00
         2    1.54941D-01  0.00D+00  1.55D-01  2.80D+00    2.01593D-02
         3    1.56499D-01  0.00D+00  1.56D-01  2.83D+00    4.03186D-02
         4    1.59186D-01  0.00D+00  1.59D-01  2.88D+00    6.04779D-02
         5    1.63152D-01  0.00D+00  1.63D-01  2.96D+00    8.06372D-02
         6    1.68634D-01  0.00D+00  1.69D-01  3.07D+00    1.00797D-01
         7    1.76000D-01  0.00D+00  1.76D-01  3.22D+00    1.20956D-01
         8    1.85819D-01  0.00D+00  1.86D-01  3.41D+00    1.41115D-01
         9    1.98986D-01  0.00D+00  1.99D-01  3.66D+00    1.61274D-01

 ** RSPCTL MICROITERATION NUMBER    3

       No.  Residual tot.,    conf., and orb.    Bnorm      Frequency 
      ----------------------------------------------------------------
         1    1.33737D-02  0.00D+00  1.34D-02  2.79D+00    0.00000D+00
         2    1.34351D-02  0.00D+00  1.34D-02  2.80D+00    2.01593D-02
         3    1.36235D-02  0.00D+00  1.36D-02  2.83D+00    4.03186D-02
         4    1.39513D-02  0.00D+00  1.40D-02  2.89D+00    6.04779D-02
         5    1.44413D-02  0.00D+00  1.44D-02  2.97D+00    8.06372D-02
         6    1.51294D-02  0.00D+00  1.51D-02  3.07D+00    1.00797D-01
         7    1.60707D-02  0.00D+00  1.61D-02  3.22D+00    1.20956D-01
         8    1.73486D-02  0.00D+00  1.73D-02  3.41D+00    1.41115D-01
         9    1.90919D-02  0.00D+00  1.91D-02  3.66D+00    1.61274D-01

 ** RSPCTL MICROITERATION NUMBER    4

       No.  Residual tot.,    conf., and orb.    Bnorm      Frequency 
      ----------------------------------------------------------------
         1    7.70238D-04  0.00D+00  7.70D-04  2.79D+00    0.00000D+00
         2    7.76307D-04  0.00D+00  7.76D-04  2.80D+00    2.01593D-02
         3    7.94809D-04  0.00D+00  7.95D-04  2.83D+00    4.03186D-02
         4    8.26671D-04  0.00D+00  8.27D-04  2.89D+00    6.04779D-02
         5    8.73612D-04  0.00D+00  8.74D-04  2.97D+00    8.06372D-02
         6    9.38435D-04  0.00D+00  9.38D-04  3.07D+00    1.00797D-01
         7    1.02554D-03  0.00D+00  1.03D-03  3.22D+00    1.20956D-01
         8    1.14182D-03  0.00D+00  1.14D-03  3.41D+00    1.41115D-01
         9    1.29820D-03  0.00D+00  1.30D-03  3.66D+00    1.61274D-01

 *** THE REQUESTED    9 SOLUTION VECTORS CONVERGED

 Convergence of RSP solution vectors, threshold = 1.00D-03
 ---------------------------------------------------------------
 (dimension of paired reduced space:   70)
 RSP solution vector no.    1; norm of residual   2.76D-04
 RSP solution vector no.    2; norm of residual   2.77D-04
 RSP solution vector no.    3; norm of residual   2.81D-04
 RSP solution vector no.    4; norm of residual   2.87D-04
 RSP solution vector no.    5; norm of residual   2.95D-04
 RSP solution vector no.    6; norm of residual   3.05D-04
 RSP solution vector no.    7; norm of residual   3.19D-04
 RSP solution vector no.    8; norm of residual   3.35D-04
 RSP solution vector no.    9; norm of residual   3.55D-04

 *** RSPCTL MICROITERATIONS CONVERGED


           Final output of second order properties from linear response
           ------------------------------------------------------------


@ Spin symmetry of operators: singlet

 Note that minus the linear response function: - << A; B >>(omega) is printed.
 The results are of quadratic accuracy using Sellers formula.

@ FREQUENCY INDEPENDENT SECOND ORDER PROPERTIES

@ -<< YDIPLEN  ; YDIPLEN  >> =  1.095257942585E+01

@ FREQUENCY DEPENDENT SECOND ORDER PROPERTIES WITH FREQUENCY :

@    a.u.:  2.0159312D-02
@    cm-1:  4.4244576D+03
@    eV  :  5.4856280D-01
@  kJ/mol:  5.2928267D+01
@    nm  :  2.2601640D+03

@ -<< YDIPLEN  ; YDIPLEN  >> =  1.096892838448E+01

@ FREQUENCY DEPENDENT SECOND ORDER PROPERTIES WITH FREQUENCY :

@    a.u.:  4.0318625D-02
@    cm-1:  8.8489153D+03
@    eV  :  1.0971256D+00
@  kJ/mol:  1.0585653D+02
@    nm  :  1.1300820D+03

@ -<< YDIPLEN  ; YDIPLEN  >> =  1.101852298447E+01

@ FREQUENCY DEPENDENT SECOND ORDER PROPERTIES WITH FREQUENCY :

@    a.u.:  6.0477937D-02
@    cm-1:  1.3273373D+04
@    eV  :  1.6456884D+00
@  kJ/mol:  1.5878480D+02
@    nm  :  7.5338801D+02

@ -<< YDIPLEN  ; YDIPLEN  >> =  1.110306537225E+01

@ FREQUENCY DEPENDENT SECOND ORDER PROPERTIES WITH FREQUENCY :

@    a.u.:  8.0637250D-02
@    cm-1:  1.7697831D+04
@    eV  :  2.1942512D+00
@  kJ/mol:  2.1171307D+02
@    nm  :  5.6504101D+02

@ -<< YDIPLEN  ; YDIPLEN  >> =  1.122560219883E+01

@ FREQUENCY DEPENDENT SECOND ORDER PROPERTIES WITH FREQUENCY :

@    a.u.:  1.0079656D-01
@    cm-1:  2.2122288D+04
@    eV  :  2.7428140D+00
@  kJ/mol:  2.6464133D+02
@    nm  :  4.5203281D+02

@ -<< YDIPLEN  ; YDIPLEN  >> =  1.139089032295E+01

@ FREQUENCY DEPENDENT SECOND ORDER PROPERTIES WITH FREQUENCY :

@    a.u.:  1.2095587D-01
@    cm-1:  2.6546746D+04
@    eV  :  3.2913768D+00
@  kJ/mol:  3.1756960D+02
@    nm  :  3.7669400D+02

@ -<< YDIPLEN  ; YDIPLEN  >> =  1.160603208599E+01

@ FREQUENCY DEPENDENT SECOND ORDER PROPERTIES WITH FREQUENCY :

@    a.u.:  1.4111519D-01
@    cm-1:  3.0971203D+04
@    eV  :  3.8399396D+00
@  kJ/mol:  3.7049787D+02
@    nm  :  3.2288058D+02

@ -<< YDIPLEN  ; YDIPLEN  >> =  1.188156627550E+01

@ FREQUENCY DEPENDENT SECOND ORDER PROPERTIES WITH FREQUENCY :

@    a.u.:  1.6127450D-01
@    cm-1:  3.5395661D+04
@    eV  :  4.3885024D+00
@  kJ/mol:  4.2342613D+02
@    nm  :  2.8252050D+02

@ -<< YDIPLEN  ; YDIPLEN  >> =  1.223339169982E+01


 Time used in linear response calculation is      0.11 CPU seconds for symmetry 3

  Total CPU  time used in RESPONSE:   0.35 seconds
  Total wall time used in RESPONSE:   0.36 seconds


                   .-------------------------------------------.
                   | End of Dynamic Property Section (RESPONS) |
                   `-------------------------------------------'

  Total CPU  time used in DALTON:   0.56 seconds
  Total wall time used in DALTON:   0.61 seconds

 
     Date and time (Linux)  : Wed Jan 11 14:21:35 2023
     Host name              : cn023                                   
