

     ************************************************************************
     *************** Dalton - An Electronic Structure Program ***************
     ************************************************************************

    This is output from DALTON release Dalton2020.0 (2020)
         ( Web site: http://daltonprogram.org )

   ----------------------------------------------------------------------------

    NOTE:
     
    Dalton is an experimental code for the evaluation of molecular
    properties using (MC)SCF, DFT, CI, and CC wave functions.
    The authors accept no responsibility for the performance of
    the code or for the correctness of the results.
     
    The code (in whole or part) is provided under a licence and
    is not to be reproduced for further distribution without
    the written permission of the authors or their representatives.
     
    See the home page "http://daltonprogram.org" for further information.
     
    If results obtained with this code are published,
    the appropriate citations would be both of:
     
       K. Aidas, C. Angeli, K. L. Bak, V. Bakken, R. Bast,
       L. Boman, O. Christiansen, R. Cimiraglia, S. Coriani,
       P. Dahle, E. K. Dalskov, U. Ekstroem,
       T. Enevoldsen, J. J. Eriksen, P. Ettenhuber, B. Fernandez,
       L. Ferrighi, H. Fliegl, L. Frediani, K. Hald, A. Halkier,
       C. Haettig, H. Heiberg, T. Helgaker, A. C. Hennum,
       H. Hettema, E. Hjertenaes, S. Hoest, I.-M. Hoeyvik,
       M. F. Iozzi, B. Jansik, H. J. Aa. Jensen, D. Jonsson,
       P. Joergensen, J. Kauczor, S. Kirpekar,
       T. Kjaergaard, W. Klopper, S. Knecht, R. Kobayashi, H. Koch,
       J. Kongsted, A. Krapp, K. Kristensen, A. Ligabue,
       O. B. Lutnaes, J. I. Melo, K. V. Mikkelsen, R. H. Myhre,
       C. Neiss, C. B. Nielsen, P. Norman, J. Olsen,
       J. M. H. Olsen, A. Osted, M. J. Packer, F. Pawlowski,
       T. B. Pedersen, P. F. Provasi, S. Reine, Z. Rinkevicius,
       T. A. Ruden, K. Ruud, V. Rybkin, P. Salek, C. C. M. Samson,
       A. Sanchez de Meras, T. Saue, S. P. A. Sauer,
       B. Schimmelpfennig, K. Sneskov, A. H. Steindal,
       K. O. Sylvester-Hvid, P. R. Taylor, A. M. Teale,
       E. I. Tellgren, D. P. Tew, A. J. Thorvaldsen, L. Thoegersen,
       O. Vahtras, M. A. Watson, D. J. D. Wilson, M. Ziolkowski
       and H. Agren,
       "The Dalton quantum chemistry program system",
       WIREs Comput. Mol. Sci. 2014, 4:269–284 (doi: 10.1002/wcms.1172)
     
    and
     
       Dalton, a molecular electronic structure program,
       Release Dalton2020.0 (2020), see http://daltonprogram.org
   ----------------------------------------------------------------------------

    Authors in alphabetical order (Major contribution(s) in parenthesis):

  Kestutis Aidas,           Vilnius University,           Lithuania   (QM/MM)
  Celestino Angeli,         University of Ferrara,        Italy       (NEVPT2)
  Keld L. Bak,              UNI-C,                        Denmark     (AOSOPPA, non-adiabatic coupling, magnetic properties)
  Vebjoern Bakken,          University of Oslo,           Norway      (DALTON; geometry optimizer, symmetry detection)
  Radovan Bast,             UiT The Arctic U. of Norway,  Norway      (DALTON installation and execution frameworks)
  Pablo Baudin,             University of Valencia,       Spain       (Cholesky excitation energies)
  Linus Boman,              NTNU,                         Norway      (Cholesky decomposition and subsystems)
  Bruno N. Cabral Tenorio,  Technical Univ. of Denmark,   Denmark     (Lanczos-based CC methods)
  Ove Christiansen,         Aarhus University,            Denmark     (CC module)
  Renzo Cimiraglia,         University of Ferrara,        Italy       (NEVPT2)
  Sonia Coriani,            Technical Univ. of Denmark,   Denmark     (CC and RESPONS modules)
  Janusz Cukras,            University of Warsaw,         Poland      (MChD in RESPONS)
  Paal Dahle,               University of Oslo,           Norway      (Parallelization)
  Erik K. Dalskov,          UNI-C,                        Denmark     (SOPPA)
  Thomas Enevoldsen,        Univ. of Southern Denmark,    Denmark     (SOPPA)
  Janus J. Eriksen,         Aarhus University,            Denmark     (Polarizable embedding, TDA)
  Rasmus Faber,             Technical Univ. of Denmark,   Denmark     (Vib.avg. NMR w. SOPPA, parallel AO-SOPPA, CVS-CC and EOMCC)
  Tobias Fahleson,          KTH Stockholm,                Sweden      (Damped cubic response)
  Berta Fernandez,          U. of Santiago de Compostela, Spain       (Doublet spin, ESR in RESPONS)
  Lara Ferrighi,            Aarhus University,            Denmark     (PCM Cubic response)
  Heike Fliegl,             University of Oslo,           Norway      (CCSD(R12))
  Luca Frediani,            UiT The Arctic U. of Norway,  Norway      (PCM)
  Emmanuel Fromager,        Univ. Strasbourg,             France      (MC-srDFT)
  Bin Gao,                  UiT The Arctic U. of Norway,  Norway      (Gen1Int library)
  Andre S. P. Gomes,        CNRS/Universite de Lille,     France      (Frozen density embedding)
  Christof Haettig,         Ruhr-University Bochum,       Germany     (CC module)
  Kasper Hald,              Aarhus University,            Denmark     (CC module)
  Asger Halkier,            Aarhus University,            Denmark     (CC module)
  Frederik Beyer Hansen,    University of Copenhagen,     Denmark     (Parallel AO-SOPPA)
  Erik D. Hedegaard,        Univ. of Southern Denmark,    Denmark     (Polarizable embedding, QM/MM, and MC-srDFT)
  Hanne Heiberg,            University of Oslo,           Norway      (Geometry analysis, selected one-electron integrals)
  Trygve Helgaker,          University of Oslo,           Norway      (DALTON; ABACUS, ERI, DFT modules, London, and much more)
  Alf Christian Hennum,     University of Oslo,           Norway      (Parity violation)
  Hinne Hettema,            University of Auckland,       New Zealand (Quadratic response in RESPONS; SIRIUS supersymmetry)
  Eirik Hjertenaes,         NTNU,                         Norway      (Cholesky decomposition)
  Pi A. B. Haase,           University of Copenhagen,     Denmark     (Triplet AO-SOPPA)
  Maria Francesca Iozzi,    University of Oslo,           Norway      (RPA)
  Christoph Jacob           TU Braunschweig               Germany     (Frozen density embedding)
  Brano Jansik              Technical Univ. of Ostrava    Czech Rep.  (DFT cubic response)
  Hans Joergen Aa. Jensen,  Univ. of Southern Denmark,    Denmark     (DALTON; SIRIUS, RESPONS, ABACUS, MC-srDFT, and much more)
  Dan Jonsson,              UiT The Arctic U. of Norway,  Norway      (Cubic response in RESPONS module)
  Poul Joergensen,          Aarhus University,            Denmark     (RESPONS, ABACUS, and CC modules)
  Maciej Kaminski,          University of Warsaw,         Poland      (CPPh in RESPONS)
  Joanna Kauczor,           Linkoeping University,        Sweden      (Complex polarization propagator (CPP) module)
  Sheela Kirpekar,          Univ. of Southern Denmark,    Denmark     (Mass-velocity & Darwin integrals)
  Erik Kjellgren,           Univ. of Southern Denmark,    Denmark     (MC-srDFT)
  Wim Klopper,              KIT Karlsruhe,                Germany     (R12 code in CC, SIRIUS, and ABACUS modules)
  Stefan Knecht,            ETH Zurich,                   Switzerland (Parallel CI and MCSCF, MC-srDFT)
  Rika Kobayashi,           Australian National Univ.,    Australia   (DIIS in CC, London in MCSCF)
  Henrik Koch,              NTNU,                         Norway      (CC module, Cholesky decomposition)
  Jacob Kongsted,           Univ. of Southern Denmark,    Denmark     (Polarizable embedding, polarizable density embedding, QM/MM)
  Andrea Ligabue,           University of Modena,         Italy       (CTOCD, AOSOPPA)
  Nanna H. List             Univ. of Southern Denmark,    Denmark     (Polarizable embedding)
  Ola B. Lutnaes,           University of Oslo,           Norway      (DFT Hessian)
  Juan I. Melo,             University of Buenos Aires,   Argentina   (LRESC, Relativistic Effects on NMR Shieldings)
  Kurt V. Mikkelsen,        University of Copenhagen,     Denmark     (MC-SCRF and QM/MM)
  Rolf H. Myhre,            NTNU,                         Norway      (Subsystems and CC3)
  Christian Neiss,          Univ. Erlangen-Nuernberg,     Germany     (CCSD(R12))
  Christian B. Nielsen,     University of Copenhagen,     Denmark     (QM/MM)
  Patrick Norman,           KTH Stockholm,                Sweden      (Cubic response and complex frequency response in RESPONS)
  Jeppe Olsen,              Aarhus University,            Denmark     (SIRIUS CI/density modules)
  Jogvan Magnus H. Olsen,   Aarhus University,            Denmark     (Polarizable embedding and polarizable density embedding)
  Anders Osted,             Copenhagen University,        Denmark     (QM/MM)
  Martin J. Packer,         University of Sheffield,      UK          (SOPPA)
  Filip Pawlowski,          Kazimierz Wielki University,  Poland      (CC3)
  Morten N. Pedersen,       Univ. of Southern Denmark,    Denmark     (Polarizable embedding)
  Thomas B. Pedersen,       University of Oslo,           Norway      (Cholesky decomposition)
  Patricio F. Provasi,      University of Northeastern,   Argentina   (Analysis of coupling constants in localized orbitals)
  Peter Reinholdt,          Univ. of Southern Denmark,    Denmark     (Polarizable embedding and polarizable density embedding)
  Zilvinas Rinkevicius,     KTH Stockholm,                Sweden      (open-shell DFT, ESR)
  Elias Rudberg,            KTH Stockholm,                Sweden      (DFT grid and basis info)
  Torgeir A. Ruden,         University of Oslo,           Norway      (Numerical derivatives in ABACUS)
  Kenneth Ruud,             UiT The Arctic U. of Norway,  Norway      (DALTON; ABACUS magnetic properties and much more)
  Pawel Salek,              KTH Stockholm,                Sweden      (DALTON; DFT code)
  Claire C. M. Samson       University of Karlsruhe       Germany     (Boys localization, r12 integrals in ERI)
  Alfredo Sanchez de Meras, University of Valencia,       Spain       (CC module, Cholesky decomposition)
  Trond Saue,               Paul Sabatier University,     France      (direct Fock matrix construction)
  Stephan P. A. Sauer,      University of Copenhagen,     Denmark     (SOPPA(CCSD), SOPPA prop., AOSOPPA, vibrational g-factors)
  Bernd Schimmelpfennig,    Forschungszentrum Karlsruhe,  Germany     (AMFI module)
  Anna K. Schnack-Petersen, University of Copenhagen,     Denmark     (RPA(D) and HRPA(D) properties in AOSOPPA)
  Kristian Sneskov,         Aarhus University,            Denmark     (Polarizable embedding, QM/MM)
  Arnfinn H. Steindal,      UiT The Arctic U. of Norway,  Norway      (parallel QM/MM, polarizable embedding)
  Casper Steinmann,         Aalborg University,           Denmark     (QFIT, polarizable embedding)
  K. O. Sylvester-Hvid,     University of Copenhagen,     Denmark     (MC-SCRF)
  Peter R. Taylor,          VLSCI/Univ. of Melbourne,     Australia   (Symmetry handling ABACUS, integral transformation)
  Andrew M. Teale,          University of Nottingham,     England     (DFT-AC, DFT-D)
  David P. Tew,             University of Bristol,        England     (CCSD(R12))
  Julien Toulouse,          Sorbonne Univ.,               France      (MC-srDFT)
  Olav Vahtras,             KTH Stockholm,                Sweden      (Triplet response, spin-orbit, ESR, TDDFT, open-shell DFT)
  Lucas Visscher,           Vrije Universiteit Amsterdam, Netherlands (Frozen density embedding)
  David J. Wilson,          La Trobe University,          Australia   (DFT Hessian and DFT magnetizabilities)
  Hans Agren,               KTH Stockholm,                Sweden      (SIRIUS module, RESPONS, MC-SCRF solvation)
 --------------------------------------------------------------------------------

     Date and time (Linux)  : Wed Jan 11 15:39:22 2023
     Host name              : cn016                                   

 * Work memory size             :    64000000 =  488.28 megabytes.

 * Directories for basis set searches:
   1) /gpfs/projects/rjh/adrian/fd_compare/dalton/hf/CO/dipole
   2) /gpfs/projects/rjh/adrian/dalton/build/basis


Compilation information
-----------------------

 Who compiled             | ahurtado
 Host                     | sn-mem
 System                   | Linux-3.10.0-1160.24.1.el7.x86_64
 CMake generator          | Unix Makefiles
 Processor                | x86_64
 64-bit integers          | OFF
 MPI                      | ON
 Fortran compiler         | /gpfs/software/intel/oneAPI/2021_4/mpi/2021.4.0/bi
                          | n/mpif90
 Fortran compiler version | GNU Fortran (GCC) 11.2.0
 C compiler               | /gpfs/software/intel/oneAPI/2021_4/mpi/2021.4.0/bi
                          | n/mpicc
 C compiler version       | gcc (GCC) 11.2.0
 C++ compiler             | /gpfs/software/intel/oneAPI/2021_4/mpi/2021.4.0/bi
                          | n/mpicxx
 C++ compiler version     | unknown
 BLAS                     | /gpfs/software/intel/oneAPI/2021_4/mkl/2021.4.0/li
                          | b/intel64/libmkl_gf_lp64.so;/gpfs/software/intel/o
                          | neAPI/2021_4/mkl/2021.4.0/lib/intel64/libmkl_seque
                          | ntial.so;/gpfs/software/intel/oneAPI/2021_4/mkl/20
                          | 21.4.0/lib/intel64/libmkl_core.so;/usr/lib64/libpt
                          | hread.so;/usr/lib64/libm.so
 LAPACK                   | /gpfs/software/intel/oneAPI/2021_4/mkl/2021.4.0/li
                          | b/intel64/libmkl_lapack95_lp64.a;/gpfs/software/in
                          | tel/oneAPI/2021_4/mkl/2021.4.0/lib/intel64/libmkl_
                          | gf_lp64.so
 Static linking           | OFF
 Last Git revision        | 66052b3af5ea7225e31178bf9a8b031913c72190
 Git branch               | (HEAD detached at Dalton2020.0)
 Configuration time       | 2023-01-11 13:33:37.731835

 * MPI parallel run using 20 processes.


   Content of the .dal input file
 ----------------------------------

**DALTON INPUT
.RUN RESPONSE
.DIRECT
**WAVE FUNCTIONS
.HF
**RESPONSE
*LINEAR
.DIPLEN
.FREQUENCIES
9
0.0 0.0201593125 0.040318625 0.060477937499999995 0.08063725 0.10079656249999999 0.12095587499999999
**END OF DALTON INPUT


   Content of the .mol file
 ----------------------------

BASIS
d-aug-cc-pCVDZ
blah
blah
Atomtype=2 Atomic
Charge=6 Atoms=1
C_a 0.000000000000 0.000000000000 0.000000000000
Charge=8 Atoms=1
O_a 0.000000000000 0.000000000000 2.132000000000


       *******************************************************************
       *********** Output from DALTON general input processing ***********
       *******************************************************************

 --------------------------------------------------------------------------------
   Overall default print level:    0
   Print level for DALTON.STAT:    1

    Parallel calculation using MPI
    AO-direct calculation (in sections where implemented)
    HERMIT 1- and 2-electron integral sections will be executed
    "Old" integral transformation used (limited to max 255 basis functions)
    Wave function sections will be executed (SIRIUS module)
    Dynamic molecular response properties section will be executed (RESPONSE module)
 --------------------------------------------------------------------------------


   ****************************************************************************
   *************** Output of molecule and basis set information ***************
   ****************************************************************************


    The two title cards from your ".mol" input:
    ------------------------------------------------------------------------
 1: blah                                                                    
 2: blah                                                                    
    ------------------------------------------------------------------------

  Atomic type no.    1
  --------------------
  Nuclear charge:   6.00000
  Number of symmetry independent centers:    1
  Number of basis sets to read;    2
  Basis set file used for this atomic type with Z =   6 :
     "/gpfs/projects/rjh/adrian/dalton/build/basis/aug-cc-pCVDZ"

  Atomic type no.    2
  --------------------
  Nuclear charge:   8.00000
  Number of symmetry independent centers:    1
  Number of basis sets to read;    2
  Basis set file used for this atomic type with Z =   8 :
     "/gpfs/projects/rjh/adrian/dalton/build/basis/aug-cc-pCVDZ"


                      SYMADD: Requested addition of symmetry
                      --------------------------------------

 Symmetry test threshold:  5.00E-06

@   The molecule is centered at center of mass and rotated
@   so principal axes of inertia are along coordinate axes.

 Symmetry class found: C(oo,v)        

 Symmetry Independent Centres             
 ----------------------------
O_a    8 :      0.00000000     0.00000000     0.91388025  Isotope  1
C_a    6 :      0.00000000     0.00000000    -1.21811975  Isotope  1

 The following symmetry elements were found:   X  Y     


                         SYMGRP: Point group information
                         -------------------------------

@    Full point group is: C(oo,v)        
@    Represented as:      C2v

@  * The irrep name for each symmetry:    1: A1     2: B1     3: B2     4: A2 

   * The point group was generated by:

      Reflection in the yz-plane
      Reflection in the xz-plane

   * Group multiplication table

        |  E   C2z  Oxz  Oyz
   -----+--------------------
     E  |  E   C2z  Oxz  Oyz
    C2z | C2z   E   Oyz  Oxz
    Oxz | Oxz  Oyz   E   C2z
    Oyz | Oyz  Oxz  C2z   E 

   * Character table

        |  E   C2z  Oxz  Oyz
   -----+--------------------
    A1  |   1    1    1    1
    B1  |   1   -1    1   -1
    B2  |   1   -1   -1    1
    A2  |   1    1   -1   -1

   * Direct product table

        | A1   B1   B2   A2 
   -----+--------------------
    A1  | A1   B1   B2   A2 
    B1  | B1   A1   A2   B2 
    B2  | B2   A2   A1   B1 
    A2  | A2   B2   B1   A1 


                                 Isotopic Masses
                                 ---------------

                           C_a        12.000000
                           O_a        15.994915

                       Total mass:    27.994915 amu
                       Natural abundance:  98.663 %

 Center-of-mass coordinates (a.u.):    0.000000    0.000000    0.000000
 Center-of-mass coordinates (Angs):    0.000000    0.000000    0.000000


  Atoms and basis sets
  --------------------

  Number of atom types :    2
  Total number of atoms:    2

  Basis set used is "d-aug-cc-pCVDZ" from the basis set library.

  label    atoms   charge   prim   cont     basis
  ----------------------------------------------------------------------
  C_          1    6.0000    48    36      [12s7p3d|6s5p3d]                                   
  O_          1    8.0000    48    36      [12s7p3d|6s5p3d]                                   
  ----------------------------------------------------------------------
  total:      2   14.0000    96    72
  ----------------------------------------------------------------------
  Spherical harmonic basis used.

  Threshold for neglecting AO integrals:  1.00D-12


  Cartesian Coordinates (a.u.)
  ----------------------------

  Total number of coordinates:    6
  C_a     :     1  x   0.0000000000    2  y   0.0000000000    3  z  -1.2181197471
  O_a     :     4  x   0.0000000000    5  y   0.0000000000    6  z   0.9138802529


  Symmetry Coordinates
  --------------------

  Number of coordinates in each symmetry:     2    2    2    0

  Symmetry  A1  ( 1)

    1   C_a   z    3
    2   O_a   z    6

  Symmetry  B1  ( 2)

    3   C_a   x    1
    4   O_a   x    4

  Symmetry  B2  ( 3)

    5   C_a   y    2
    6   O_a   y    5


   Interatomic separations (in Angstrom):
   --------------------------------------

            C_a         O_a   
            ------      ------
 C_a   :    0.000000
 O_a   :    1.128206    0.000000


  Max    interatomic separation is    1.1282 Angstrom (    2.1320 Bohr)
  between atoms    2 and    1, "O_a   " and "C_a   ".

  Min YX interatomic separation is    1.1282 Angstrom (    2.1320 Bohr)


  Bond distances (Angstrom):
  --------------------------

                  atom 1     atom 2       distance
                  ------     ------       --------
  bond distance:  O_a        C_a          1.128206




 Principal moments of inertia (u*A**2) and principal axes
 --------------------------------------------------------

   IA       0.000000          0.000000    0.000000    1.000000
   IB       8.726914          0.000000    1.000000    0.000000
   IC       8.726914          1.000000    0.000000    0.000000


 Rotational constants
 --------------------

@    The molecule is linear.

               B =        57910.39 MHz     (    1.931683 cm-1)


@  Nuclear repulsion energy :   22.514071294559 Hartree


  Symmetry Orbitals
  -----------------

  Number of orbitals in each symmetry:          34   16   16    6


  Symmetry  A1 ( 1)

    1     C_a      1s         1
    2     C_a      1s         2
    3     C_a      1s         3
    4     C_a      1s         4
    5     C_a      1s         5
    6     C_a      1s         6
    7     C_a      2pz        9
    8     C_a      2pz       12
    9     C_a      2pz       15
   10     C_a      2pz       18
   11     C_a      2pz       21
   12     C_a      3d0       24
   13     C_a      3d2+      26
   14     C_a      3d0       29
   15     C_a      3d2+      31
   16     C_a      3d0       34
   17     C_a      3d2+      36
   18     O_a      1s        37
   19     O_a      1s        38
   20     O_a      1s        39
   21     O_a      1s        40
   22     O_a      1s        41
   23     O_a      1s        42
   24     O_a      2pz       45
   25     O_a      2pz       48
   26     O_a      2pz       51
   27     O_a      2pz       54
   28     O_a      2pz       57
   29     O_a      3d0       60
   30     O_a      3d2+      62
   31     O_a      3d0       65
   32     O_a      3d2+      67
   33     O_a      3d0       70
   34     O_a      3d2+      72


  Symmetry  B1 ( 2)

   35     C_a      2px        7
   36     C_a      2px       10
   37     C_a      2px       13
   38     C_a      2px       16
   39     C_a      2px       19
   40     C_a      3d1+      25
   41     C_a      3d1+      30
   42     C_a      3d1+      35
   43     O_a      2px       43
   44     O_a      2px       46
   45     O_a      2px       49
   46     O_a      2px       52
   47     O_a      2px       55
   48     O_a      3d1+      61
   49     O_a      3d1+      66
   50     O_a      3d1+      71


  Symmetry  B2 ( 3)

   51     C_a      2py        8
   52     C_a      2py       11
   53     C_a      2py       14
   54     C_a      2py       17
   55     C_a      2py       20
   56     C_a      3d1-      23
   57     C_a      3d1-      28
   58     C_a      3d1-      33
   59     O_a      2py       44
   60     O_a      2py       47
   61     O_a      2py       50
   62     O_a      2py       53
   63     O_a      2py       56
   64     O_a      3d1-      59
   65     O_a      3d1-      64
   66     O_a      3d1-      69


  Symmetry  A2 ( 4)

   67     C_a      3d2-      22
   68     C_a      3d2-      27
   69     C_a      3d2-      32
   70     O_a      3d2-      58
   71     O_a      3d2-      63
   72     O_a      3d2-      68

  Symmetries of electric field:  B1 (2)  B2 (3)  A1 (1)

  Symmetries of magnetic field:  B2 (3)  B1 (2)  A2 (4)


                     .---------------------------------------.
                     | Starting in Integral Section (HERMIT) |
                     `---------------------------------------'



 ***************************************************************************************
 ****************** Output from **INTEGRALS input processing (HERMIT) ******************
 ***************************************************************************************


 - Using defaults, no **INTEGRALS input found

 Default print level:        1

 Calculation of one-electron Hamiltonian integrals.

 Center of mass  (bohr):      0.000000000000      0.000000000000      0.000000000000
 Operator center (bohr):      0.000000000000      0.000000000000      0.000000000000
 Gauge origin    (bohr):      0.000000000000      0.000000000000      0.000000000000
 Dipole origin   (bohr):      0.000000000000      0.000000000000      0.000000000000


     ************************************************************************
     ************************** Output from HERINT **************************
     ************************************************************************



                      Nuclear contribution to dipole moments
                      --------------------------------------

                 au               Debye          C m (/(10**-30)

      z      0.00232354         0.00590585         0.01969980


  Total CPU  time used in HERMIT:   0.08 seconds
  Total wall time used in HERMIT:   0.09 seconds


                        .----------------------------------.
                        | End of Integral Section (HERMIT) |
                        `----------------------------------'



                   .--------------------------------------------.
                   | Starting in Wave Function Section (SIRIUS) |
                   `--------------------------------------------'


 *** Output from Huckel module :

     Using EWMO model:          T
     Using EHT  model:          F
     Number of Huckel orbitals each symmetry:    6    2    2    0

 EWMO - Energy Weighted Maximum Overlap - is a Huckel type method,
        which normally is better than Extended Huckel Theory.
 Reference: Linderberg and Ohrn, Propagators in Quantum Chemistry (Wiley, 1973)

 Huckel EWMO eigenvalues for symmetry :  1
          -20.685999     -11.349525      -1.578830      -0.796795      -0.456115
           -0.137637

 Huckel EWMO eigenvalues for symmetry :  2
           -0.717188      -0.305912

 Huckel EWMO eigenvalues for symmetry :  3
           -0.717188      -0.305912

 **********************************************************************
 *SIRIUS* a direct, restricted step, second order MCSCF program       *
 **********************************************************************

 
     Date and time (Linux)  : Wed Jan 11 15:39:22 2023
     Host name              : cn016                                   

 Title lines from ".mol" input file:
     blah                                                                    
     blah                                                                    

 Print level on unit LUPRI =   2 is   0
 Print level on unit LUW4  =   2 is   5

@    Restricted, closed shell Hartree-Fock calculation.

@    Time-dependent Hartree-Fock calculation (random phase approximation).
 Fock matrices are calculated directly and in parallel without use of integrals on disk.

 Initial molecular orbitals are obtained according to
 ".MOSTART EWMO  " input option

     Wave function specification
     ============================
@    Wave function type        --- HF ---
@    Number of closed shell electrons          14
@    Number of electrons in active shells       0
@    Total charge of the molecule               0

@    Spin multiplicity and 2 M_S                1         0
@    Total number of symmetries                 4 (point group: C2v)
@    Reference state symmetry                   1 (irrep name : A1 )

     Orbital specifications
     ======================
@    Abelian symmetry species          All |    1    2    3    4
@                                          |  A1   B1   B2   A2 
                                       --- |  ---  ---  ---  ---
@    Total number of orbitals           72 |   34   16   16    6
@    Number of basis functions          72 |   34   16   16    6

      ** Automatic occupation of RHF orbitals **

      -- Initial occupation of symmetries is determined from extended Huckel guess.           
      -- Initial occupation of symmetries is :
@    Occupied SCF orbitals               7 |    5    1    1    0

     Maximum number of Fock   iterations      0
     Maximum number of DIIS   iterations     60
     Maximum number of QC-SCF iterations     60
     Threshold for SCF convergence     1.00D-05


 ***********************************************
 ***** DIIS acceleration of SCF iterations *****
 ***********************************************

 C1-DIIS algorithm; max error vectors =    8

 Automatic occupation of symmetries with  14 electrons.

 Iter     Total energy    Error norm  Delta(E)    SCF occupation
 -----------------------------------------------------------------------------
   1  Screening settings (-IFTHRS, JTDIIS, DIFDEN, times)   -7    1    T  4.43D-02  4.50D-02
@  1  -112.479801638       2.32D+00  -1.12D+02     5   1   1   0
      Virial theorem: -V/T =      2.005913
@    MULPOP   C_a     0.43; O_a    -0.43; 
   1  Level shift: doubly occupied orbital energies shifted by -2.00D-01
 -----------------------------------------------------------------------------
   2  Screening settings (-IFTHRS, JTDIIS, DIFDEN, times)   -7    2    T  2.21D-02  2.30D-02
@  2  -112.742408014       4.67D-01  -2.63D-01     5   1   1   0
      Virial theorem: -V/T =      1.999230
@    MULPOP   C_a     0.32; O_a    -0.32; 
   2  Level shift: doubly occupied orbital energies shifted by -5.00D-02
 -----------------------------------------------------------------------------
   3  Screening settings (-IFTHRS, JTDIIS, DIFDEN, times)   -7    3    T  2.19D-02  2.20D-02
@  3  -112.754372252       1.24D-01  -1.20D-02     5   1   1   0
      Virial theorem: -V/T =      2.001244
@    MULPOP   C_a     0.29; O_a    -0.29; 
   3  Level shift: doubly occupied orbital energies shifted by -2.50D-02
 -----------------------------------------------------------------------------
   4  Screening settings (-IFTHRS, JTDIIS, DIFDEN, times)  -11    4    F  2.18D-02  2.20D-02
@  4  -112.755498101       6.32D-02  -1.13D-03     5   1   1   0
      Virial theorem: -V/T =      2.002267
@    MULPOP   C_a     0.23; O_a    -0.23; 
   4  Level shift: doubly occupied orbital energies shifted by -2.50D-02
 -----------------------------------------------------------------------------
   5  Screening settings (-IFTHRS, JTDIIS, DIFDEN, times)  -11    5    T  2.19D-02  2.20D-02
@  5  -112.755703706       1.59D-02  -2.06D-04     5   1   1   0
      Virial theorem: -V/T =      2.001624
@    MULPOP   C_a     0.25; O_a    -0.25; 
   5  Level shift: doubly occupied orbital energies shifted by -1.25D-02
 -----------------------------------------------------------------------------
   6  Screening settings (-IFTHRS, JTDIIS, DIFDEN, times)  -11    6    T  2.21D-02  2.20D-02
@  6  -112.755722119       2.85D-03  -1.84D-05     5   1   1   0
      Virial theorem: -V/T =      2.001742
@    MULPOP   C_a     0.25; O_a    -0.25; 
 -----------------------------------------------------------------------------
   7  Screening settings (-IFTHRS, JTDIIS, DIFDEN, times)  -11    7    T  2.20D-02  2.10D-02
@  7  -112.755722849       4.62D-04  -7.30D-07     5   1   1   0
      Virial theorem: -V/T =      2.001751
@    MULPOP   C_a     0.25; O_a    -0.25; 
 -----------------------------------------------------------------------------
   8  Screening settings (-IFTHRS, JTDIIS, DIFDEN, times)  -11    8    T  2.19D-02  2.20D-02
@  8  -112.755722870       9.91D-05  -2.17D-08     5   1   1   0
      Virial theorem: -V/T =      2.001753
@    MULPOP   C_a     0.25; O_a    -0.25; 
 -----------------------------------------------------------------------------
   9  Screening settings (-IFTHRS, JTDIIS, DIFDEN, times)  -11    9    T  2.19D-02  2.20D-02
@  9  -112.755722871       8.94D-06  -1.00D-09     5   1   1   0

@ *** DIIS converged in   9 iterations !
@     Converged SCF energy, gradient:   -112.755722871394    8.94D-06
    - total time used in SIRFCK :              0.00 seconds


 *** SCF orbital energy analysis ***

 Only the 20 lowest virtual orbital energies printed in each symmetry.

 Number of electrons :   14
 Orbital occupations :    5    1    1    0

 Sym       Hartree-Fock orbital energies

1 A1    -20.67810570   -11.37290631    -1.52967411    -0.80833225    -0.55472508
          0.01696757     0.02310648     0.05886589     0.07354845     0.12941612
          0.13105402     0.16452540     0.20776641     0.31470458     0.35962719
          0.38998576     0.47927413     0.55163472     0.60297532     0.86710914
          0.97464928     1.14649530     1.16982782     1.59681406     1.75471631

2 B1     -0.64104353     0.02166602     0.05897404     0.09620656     0.16393874
          0.18962689     0.33059574     0.43631585     0.62950520     0.97066200
          1.30711239     1.73437283     1.98302625     3.68631720    22.79715687
         39.42643621

3 B2     -0.64104353     0.02166602     0.05897404     0.09620656     0.16393874
          0.18962689     0.33059574     0.43631585     0.62950520     0.97066200
          1.30711239     1.73437283     1.98302625     3.68631720    22.79715687
         39.42643621

4 A2      0.13105402     0.35962719     0.55163472     1.14649530     1.75471631
          3.63043977

    E(LUMO) :     0.01696757 au (symmetry 1)
  - E(HOMO) :    -0.55472508 au (symmetry 1)
  ------------------------------------------
    gap     :     0.57169265 au

 --- Writing SIRIFC interface file

 CPU and wall time for SCF :       0.235       0.237


                       .-----------------------------------.
                       | --- Final results from SIRIUS --- |
                       `-----------------------------------'


@    Spin multiplicity:           1
@    Spatial symmetry:            1 ( irrep  A1  in C2v )
@    Total charge of molecule:    0

@    Final HF energy:            -112.755722871394                 
@    Nuclear repulsion:            22.514071294559
@    Electronic energy:          -135.269794165954

@    Final gradient norm:           0.000008943770

 
     Date and time (Linux)  : Wed Jan 11 15:39:22 2023
     Host name              : cn016                                   

File label for MO orbitals:  11Jan23   FOCKDIIS

 (Only coefficients > 0.0100 are printed.)

 Molecular orbitals for symmetry species 1  (A1 )
 ------------------------------------------------

    Orbital         1        2        3        4        5        6        7
   1 C_a :1s     0.0002   1.0027  -0.0104   0.0058  -0.0078   0.0047  -0.0013
   2 C_a :1s     0.0012   0.0120   0.4513   0.6009   0.5682   0.0661  -0.0308
   3 C_a :1s     0.0044  -0.0089  -0.1229  -0.0963   0.1454  -0.2648  -0.0548
   5 C_a :1s     0.0031   0.0016   0.0620   0.0489  -0.0104  -1.8597  -0.3709
   6 C_a :1s     0.0005   0.0004   0.0197   0.0052  -0.0186  -4.2933  -0.6837
   7 C_a :2pz    0.0004   0.0065   0.3286   0.2050  -0.6943  -0.0540   0.0117
   8 C_a :2pz    0.0052  -0.0017  -0.1642  -0.0862   0.1212  -0.1620  -0.0281
  10 C_a :2pz    0.0015   0.0028  -0.0072   0.0020  -0.0499  -0.5876  -0.1811
  11 C_a :2pz   -0.0000   0.0003   0.0041  -0.0004  -0.0064  -0.2997  -1.8380
  12 C_a :3d0   -0.0005   0.0016   0.0456   0.0245  -0.0385  -0.0058  -0.0009
  14 C_a :3d0    0.0020  -0.0003  -0.0245  -0.0012   0.0009  -0.0360   0.0155
  16 C_a :3d0    0.0002   0.0013  -0.0055  -0.0059  -0.0142  -0.0046  -0.1415
  18 O_a :1s     1.0015  -0.0000  -0.0086  -0.0020  -0.0032  -0.0015   0.0009
  19 O_a :1s     0.0056   0.0025   0.8181  -0.4653  -0.0778   0.0166   0.0217
  20 O_a :1s    -0.0114  -0.0062  -0.0903  -0.1525   0.0715   0.0830   0.0015
  22 O_a :1s    -0.0037  -0.0013  -0.0864  -0.1273   0.1182   1.0827   0.2714
  23 O_a :1s    -0.0010  -0.0002  -0.0462  -0.0152   0.0272   4.4557   1.2148
  24 O_a :2pz   -0.0024  -0.0010  -0.2360  -0.7251   0.3684   0.0290   0.0024
  25 O_a :2pz    0.0040   0.0054   0.1009   0.1199  -0.0759  -0.0617  -0.0131
  27 O_a :2pz   -0.0010  -0.0040   0.0738   0.0252   0.0184  -0.3631  -0.0443
  28 O_a :2pz    0.0000  -0.0007   0.0038   0.0028   0.0106  -0.7716   0.7917
  29 O_a :3d0    0.0005   0.0005   0.0226   0.0225  -0.0159   0.0003   0.0002
  31 O_a :3d0   -0.0007  -0.0026  -0.0162  -0.0071   0.0208   0.0083   0.0028
  33 O_a :3d0    0.0009   0.0015  -0.0197  -0.0017  -0.0119   0.0357   0.0093

    Orbital         8        9       10       11       12       13       14
   1 C_a :1s    -0.0094  -0.0054   0.0007   0.0000  -0.0410   0.0276   0.0173
   2 C_a :1s     0.0208   0.0495  -0.0960   0.0000  -0.2921   0.2795  -0.0927
   3 C_a :1s     0.3293   0.7656  -0.0941   0.0000   0.9724  -1.8305  -1.6341
   4 C_a :1s    -0.0029  -0.0021   0.0009  -0.0000  -0.0109   0.0078   0.0025
   5 C_a :1s     0.9022   5.2938  -2.4861  -0.0000   1.8163 -11.7438  -2.4561
   6 C_a :1s    -0.2490   6.3790  -2.0620   0.0000  -0.0435  -5.3940  -0.8682
   7 C_a :2pz   -0.0298  -0.0575   0.0592   0.0000   0.0508  -0.2014  -0.0709
   8 C_a :2pz   -0.0758   0.3677  -0.4322  -0.0000  -0.1339  -0.9417  -0.1144
  10 C_a :2pz   -1.2317   1.3707  -2.9391  -0.0000  -3.1788  -2.6383   1.4229
  11 C_a :2pz   -1.9562   0.9801   0.1287  -0.0000  -1.2064  -0.7507  -0.0266
  12 C_a :3d0    0.0005   0.0173   0.0224   0.0000  -0.0038  -0.0392  -0.0263
  13 C_a :3d2+   0.0000   0.0000  -0.0000   0.0180   0.0000   0.0000  -0.0000
  14 C_a :3d0   -0.0498   0.0670  -0.2732  -0.0000  -0.1086  -0.0258   0.1245
  15 C_a :3d2+  -0.0000   0.0000   0.0000  -0.0569   0.0000  -0.0000   0.0000
  16 C_a :3d0   -0.4845   0.1709   0.0297  -0.0000  -2.1920  -0.5171   1.3382
  17 C_a :3d2+   0.0000  -0.0000  -0.0000   1.1340  -0.0000  -0.0000  -0.0000
  19 O_a :1s    -0.0268   0.0958   0.0435  -0.0000   0.0277   0.1292   0.0043
  20 O_a :1s     0.0425  -0.1040   0.3328   0.0000   0.0832   0.3314   0.1122
  22 O_a :1s     0.2646  -2.5926   2.2454  -0.0000   0.9370   7.2609   1.1448
  23 O_a :1s    -0.0716 -10.0530   3.0534  -0.0000  -1.2954  10.8007   2.3794
  24 O_a :2pz   -0.0057   0.0500  -0.0215   0.0000   0.0402   0.0996   0.0927
  25 O_a :2pz   -0.0110   0.1520  -0.0906  -0.0000  -0.0356  -0.3519  -0.0508
  27 O_a :2pz    0.7190   1.0781   0.5114   0.0000   2.5631  -2.9079  -3.6203
  28 O_a :2pz    3.1720   0.8032   0.1640   0.0000   2.7467  -0.8540  -0.5291
  29 O_a :3d0   -0.0002  -0.0012   0.0015  -0.0000  -0.0028   0.0065  -0.0321
  31 O_a :3d0    0.0139  -0.0183   0.0097  -0.0000   0.0004   0.0460   0.1201
  32 O_a :3d2+   0.0000  -0.0000  -0.0000   0.0417  -0.0000  -0.0000  -0.0000
  33 O_a :3d0   -0.2286  -0.1086  -0.3464  -0.0000  -0.5219   0.5134  -0.2871
  34 O_a :3d2+  -0.0000   0.0000   0.0000  -0.1883   0.0000   0.0000   0.0000

    Orbital        15
  13 C_a :3d2+  -0.0466
  15 C_a :3d2+   0.1238
  17 C_a :3d2+   0.7482
  30 O_a :3d2+  -0.0338
  32 O_a :3d2+   0.0930
  34 O_a :3d2+  -1.4477

 Molecular orbitals for symmetry species 2  (B1 )
 ------------------------------------------------

    Orbital         1        2        3        4        5        6        7
   1 C_a :2px   -0.4369   0.0160  -0.0046  -0.3395  -0.2284   0.6234  -0.0506
   2 C_a :2px    0.1258   0.0227   0.1467  -0.3062   0.4020  -0.0211  -0.6462
   4 C_a :2px    0.0137   0.1868   1.3101  -1.7851   3.6291  -0.8887  -3.4465
   5 C_a :2px   -0.0048   1.8139   2.2142   0.1212   1.3720   0.3999  -0.2062
   6 C_a :3d1+  -0.0558  -0.0022   0.0046   0.0231   0.0000   0.0050  -0.0240
   7 C_a :3d1+   0.0168  -0.0127   0.0504  -0.1179   0.1382  -0.2653  -0.4699
   8 C_a :3d1+  -0.0050   0.1411   0.4570   0.0705   1.9678   0.6620  -1.5850
   9 O_a :2px   -0.7975  -0.0470   0.0671   0.3029  -0.0189  -0.3878  -0.2426
  10 O_a :2px   -0.0066  -0.0014  -0.0077   0.1267  -0.0107  -0.0030  -0.0275
  12 O_a :2px   -0.0522  -0.1081  -0.6597   0.9218  -2.3748   0.3235   4.3002
  13 O_a :2px    0.0032  -1.0468  -3.4134   0.6787  -2.9189  -0.1291   0.8969
  14 O_a :3d1+   0.0276   0.0007  -0.0020   0.0063   0.0055  -0.0127   0.0329
  15 O_a :3d1+   0.0235  -0.0003   0.0005  -0.0073   0.0363  -0.0119  -0.1379
  16 O_a :3d1+   0.0152   0.0081   0.1812  -0.2029   0.4026  -0.4896  -0.0046

    Orbital         8        9       10       11
   1 C_a :2px    0.4375   0.4460   1.0878   1.2598
   2 C_a :2px    1.8792   0.6422  -4.6318  -1.8801
   4 C_a :2px    3.3316   0.4300  -2.8919  -0.5818
   5 C_a :2px    0.4171  -0.3272  -0.1749  -0.1450
   6 C_a :3d1+   0.0051  -0.0153  -0.0708  -0.2301
   7 C_a :3d1+   0.3217   1.6962  -1.2734  -0.0860
   8 C_a :3d1+   0.9172  -0.4046  -1.0844  -0.1107
   9 O_a :2px   -0.0677  -0.3272   0.1949  -0.3887
  10 O_a :2px   -0.2887  -0.8171   0.7484   0.7610
  12 O_a :2px   -4.0709  -0.7921   4.9735   0.8369
  13 O_a :2px   -1.2889   0.3384   0.6767   0.3312
  14 O_a :3d1+  -0.0013  -0.0236   0.0066  -0.0082
  15 O_a :3d1+  -0.0199   0.0701  -0.8216   0.9425
  16 O_a :3d1+   2.2072   0.3559  -1.4935  -0.9652

 Molecular orbitals for symmetry species 3  (B2 )
 ------------------------------------------------

    Orbital         1        2        3        4        5        6        7
   1 C_a :2py   -0.4369   0.0160  -0.0046  -0.3395  -0.2284   0.6234  -0.0506
   2 C_a :2py    0.1258   0.0227   0.1467  -0.3062   0.4020  -0.0211  -0.6462
   4 C_a :2py    0.0137   0.1868   1.3101  -1.7851   3.6291  -0.8887  -3.4465
   5 C_a :2py   -0.0048   1.8139   2.2142   0.1212   1.3720   0.3999  -0.2062
   6 C_a :3d1-  -0.0558  -0.0022   0.0046   0.0231   0.0000   0.0050  -0.0240
   7 C_a :3d1-   0.0168  -0.0127   0.0504  -0.1179   0.1382  -0.2653  -0.4699
   8 C_a :3d1-  -0.0050   0.1411   0.4570   0.0705   1.9678   0.6620  -1.5850
   9 O_a :2py   -0.7975  -0.0470   0.0671   0.3029  -0.0189  -0.3878  -0.2426
  10 O_a :2py   -0.0066  -0.0014  -0.0077   0.1267  -0.0107  -0.0030  -0.0275
  12 O_a :2py   -0.0522  -0.1081  -0.6597   0.9218  -2.3748   0.3235   4.3002
  13 O_a :2py    0.0032  -1.0468  -3.4134   0.6787  -2.9189  -0.1291   0.8969
  14 O_a :3d1-   0.0276   0.0007  -0.0020   0.0063   0.0055  -0.0127   0.0329
  15 O_a :3d1-   0.0235  -0.0003   0.0005  -0.0073   0.0363  -0.0119  -0.1379
  16 O_a :3d1-   0.0152   0.0081   0.1812  -0.2029   0.4026  -0.4896  -0.0046

    Orbital         8        9       10       11
   1 C_a :2py    0.4375   0.4460   1.0878   1.2598
   2 C_a :2py    1.8792   0.6422  -4.6318  -1.8801
   4 C_a :2py    3.3316   0.4300  -2.8919  -0.5818
   5 C_a :2py    0.4171  -0.3272  -0.1749  -0.1450
   6 C_a :3d1-   0.0051  -0.0153  -0.0708  -0.2301
   7 C_a :3d1-   0.3217   1.6962  -1.2734  -0.0860
   8 C_a :3d1-   0.9172  -0.4046  -1.0844  -0.1107
   9 O_a :2py   -0.0677  -0.3272   0.1949  -0.3887
  10 O_a :2py   -0.2887  -0.8171   0.7484   0.7610
  12 O_a :2py   -4.0709  -0.7921   4.9735   0.8369
  13 O_a :2py   -1.2889   0.3384   0.6767   0.3312
  14 O_a :3d1-  -0.0013  -0.0236   0.0066  -0.0082
  15 O_a :3d1-  -0.0199   0.0701  -0.8216   0.9425
  16 O_a :3d1-   2.2072   0.3559  -1.4935  -0.9652

 Molecular orbitals for symmetry species 4  (A2 )
 ------------------------------------------------

    Orbital         1        2        3        4        5        6
   1 C_a :3d2-   0.0180   0.0466   0.0316   0.1400   1.2154  -0.0106
   2 C_a :3d2-  -0.0569  -0.1238  -1.4133  -0.4109  -0.7192   0.1022
   3 C_a :3d2-   1.1340  -0.7482   0.1419   0.3474   0.0327  -0.1439
   4 O_a :3d2-  -0.0029   0.0338  -0.0148  -0.0080   0.0211   1.2063
   5 O_a :3d2-   0.0417  -0.0930   0.0072   1.2104  -0.4122  -0.8029
   6 O_a :3d2-  -0.1883   1.4477   0.7988  -0.5782   0.4009   0.2955

  Total CPU  time used in SIRIUS :   0.25 seconds
  Total wall time used in SIRIUS :   0.25 seconds

 
     Date and time (Linux)  : Wed Jan 11 15:39:22 2023
     Host name              : cn016                                   


                     .---------------------------------------.
                     | End of Wave Function Section (SIRIUS) |
                     `---------------------------------------'



                 .------------------------------------------------.
                 | Starting in Dynamic Property Section (RESPONS) |
                 `------------------------------------------------'


 ----------------------------------------------------------------------------------------
  RESPONSE  -  an MCSCF, MC-srDFT, DFT, SOPPA and SOPPA-srDFT response property program
 ----------------------------------------------------------------------------------------


 -------- OUTPUT FROM RESPONSE INPUT PROCESSING --------




 Linear Response calculation
 ---------------------------

 Print level                                    : IPRLR  =   2
 Maximum number of iterations                   : MAXITL =  60
 Threshold for relative convergence             : THCLR  = 1.000D-03
 Maximum iterations in optimal orbital algorithm: MAXITO =   5

  9 B-frequencies  0.000000D+00  2.015931D-02  4.031862D-02  6.047794D-02  8.063725D-02
  1.007966D-01  1.209559D-01  1.411152D-01  1.612745D-01

    1 second order properties calculated with symmetry no.    1 and labels:

          ZDIPLEN 

    1 second order properties calculated with symmetry no.    2 and labels:

          XDIPLEN 

    1 second order properties calculated with symmetry no.    3 and labels:

          YDIPLEN 


   SCF energy         :     -112.755722871394426
 -- inactive part     :     -135.269794165953527
 -- nuclear repulsion :       22.514071294559098


                     ***************************************
                     *** RHF response calculation (TDHF) ***
                     ***************************************

 ----------------------------------------------------------------
 ----- Linear response calculation
 ----- Symmetry of excitation/property operator(s)    1  ( A1 )
 ----------------------------------------------------------------

 Number of excitations of this symmetry            0
 Number of response properties of this symmetry    1
 Number of C6/C8 properties of this symmetry       0


 Perturbation symmetry.     KSYMOP:           1
 Perturbation spin symmetry.TRPLET:           F
 Orbital variables.         KZWOPT:         175
 Configuration variables.   KZCONF:           0
 Total number of variables. KZVAR :         175


 RSPLR -- linear response calculation for symmetry 1  ( A1 )
 RSPLR -- operator label : ZDIPLEN 
 RSPLR -- operator spin  :   0
 RSPLR -- frequencies    :     0.000000  0.020159  0.040319  0.060478  0.080637
                               0.100797  0.120956  0.141115  0.161274



 ---  SOLVING SETS OF LINEAR EQUATIONS FOR LINEAR RESPONSE PROPERTIES ---

 Operator symmetry = 1  ( A1 ); triplet =   F


 ** RSPCTL MICROITERATION NUMBER    1

       No.  Residual tot.,    conf., and orb.    Bnorm      Frequency 
      ----------------------------------------------------------------
         1    2.71444D+00  0.00D+00  2.71D+00  2.62D+00    0.00000D+00
         2    2.71702D+00  0.00D+00  2.72D+00  2.63D+00    2.01593D-02
         3    2.72481D+00  0.00D+00  2.72D+00  2.64D+00    4.03186D-02
         4    2.73792D+00  0.00D+00  2.74D+00  2.67D+00    6.04779D-02
         5    2.75652D+00  0.00D+00  2.76D+00  2.71D+00    8.06372D-02
         6    2.78089D+00  0.00D+00  2.78D+00  2.76D+00    1.00797D-01
         7    2.81137D+00  0.00D+00  2.81D+00  2.82D+00    1.20956D-01
         8    2.84844D+00  0.00D+00  2.85D+00  2.90D+00    1.41115D-01
         9    2.89268D+00  0.00D+00  2.89D+00  2.99D+00    1.61274D-01

 ** RSPCTL MICROITERATION NUMBER    2

       No.  Residual tot.,    conf., and orb.    Bnorm      Frequency 
      ----------------------------------------------------------------
         1    5.27605D-01  0.00D+00  5.28D-01  3.14D+00    0.00000D+00
         2    5.28559D-01  0.00D+00  5.29D-01  3.14D+00    2.01593D-02
         3    5.31441D-01  0.00D+00  5.31D-01  3.16D+00    4.03186D-02
         4    5.36309D-01  0.00D+00  5.36D-01  3.20D+00    6.04779D-02
         5    5.43265D-01  0.00D+00  5.43D-01  3.25D+00    8.06372D-02
         6    5.52456D-01  0.00D+00  5.52D-01  3.32D+00    1.00797D-01
         7    5.64089D-01  0.00D+00  5.64D-01  3.40D+00    1.20956D-01
         8    5.78438D-01  0.00D+00  5.78D-01  3.51D+00    1.41115D-01
         9    5.95862D-01  0.00D+00  5.96D-01  3.63D+00    1.61274D-01

 ** RSPCTL MICROITERATION NUMBER    3

       No.  Residual tot.,    conf., and orb.    Bnorm      Frequency 
      ----------------------------------------------------------------
         1    6.63605D-02  0.00D+00  6.64D-02  3.16D+00    0.00000D+00
         2    6.65184D-02  0.00D+00  6.65D-02  3.17D+00    2.01593D-02
         3    6.69957D-02  0.00D+00  6.70D-02  3.19D+00    4.03186D-02
         4    6.78030D-02  0.00D+00  6.78D-02  3.22D+00    6.04779D-02
         5    6.89588D-02  0.00D+00  6.90D-02  3.28D+00    8.06372D-02
         6    7.04907D-02  0.00D+00  7.05D-02  3.34D+00    1.00797D-01
         7    7.24372D-02  0.00D+00  7.24D-02  3.43D+00    1.20956D-01
         8    7.48509D-02  0.00D+00  7.49D-02  3.54D+00    1.41115D-01
         9    7.78027D-02  0.00D+00  7.78D-02  3.66D+00    1.61274D-01

 ** RSPCTL MICROITERATION NUMBER    4

       No.  Residual tot.,    conf., and orb.    Bnorm      Frequency 
      ----------------------------------------------------------------
         1    1.08864D-02  0.00D+00  1.09D-02  3.16D+00    0.00000D+00
         2    1.09410D-02  0.00D+00  1.09D-02  3.17D+00    2.01593D-02
         3    1.11064D-02  0.00D+00  1.11D-02  3.19D+00    4.03186D-02
         4    1.13869D-02  0.00D+00  1.14D-02  3.22D+00    6.04779D-02
         5    1.17902D-02  0.00D+00  1.18D-02  3.28D+00    8.06372D-02
         6    1.23274D-02  0.00D+00  1.23D-02  3.34D+00    1.00797D-01
         7    1.30136D-02  0.00D+00  1.30D-02  3.43D+00    1.20956D-01
         8    1.38685D-02  0.00D+00  1.39D-02  3.54D+00    1.41115D-01
         9    1.49173D-02  0.00D+00  1.49D-02  3.67D+00    1.61274D-01

 ** RSPCTL MICROITERATION NUMBER    5

       No.  Residual tot.,    conf., and orb.    Bnorm      Frequency 
      ----------------------------------------------------------------
         1    8.56382D-04  0.00D+00  8.56D-04  3.16D+00    0.00000D+00
         2    8.61456D-04  0.00D+00  8.61D-04  3.17D+00    2.01593D-02
         3    8.76820D-04  0.00D+00  8.77D-04  3.19D+00    4.03186D-02
         4    9.02906D-04  0.00D+00  9.03D-04  3.22D+00    6.04779D-02
         5    9.40458D-04  0.00D+00  9.40D-04  3.28D+00    8.06372D-02
         6    9.90579D-04  0.00D+00  9.91D-04  3.34D+00    1.00797D-01
         7    1.05478D-03  0.00D+00  1.05D-03  3.43D+00    1.20956D-01
         8    1.13509D-03  0.00D+00  1.14D-03  3.54D+00    1.41115D-01
         9    1.23412D-03  0.00D+00  1.23D-03  3.67D+00    1.61274D-01

 *** THE REQUESTED    9 SOLUTION VECTORS CONVERGED

 Convergence of RSP solution vectors, threshold = 1.00D-03
 ---------------------------------------------------------------
 (dimension of paired reduced space:   90)
 RSP solution vector no.    1; norm of residual   2.71D-04
 RSP solution vector no.    2; norm of residual   2.72D-04
 RSP solution vector no.    3; norm of residual   2.75D-04
 RSP solution vector no.    4; norm of residual   2.80D-04
 RSP solution vector no.    5; norm of residual   2.87D-04
 RSP solution vector no.    6; norm of residual   2.96D-04
 RSP solution vector no.    7; norm of residual   3.07D-04
 RSP solution vector no.    8; norm of residual   3.21D-04
 RSP solution vector no.    9; norm of residual   3.37D-04

 *** RSPCTL MICROITERATIONS CONVERGED


           Final output of second order properties from linear response
           ------------------------------------------------------------


@ Spin symmetry of operators: singlet

 Note that minus the linear response function: - << A; B >>(omega) is printed.
 The results are of quadratic accuracy using Sellers formula.

@ FREQUENCY INDEPENDENT SECOND ORDER PROPERTIES

@ -<< ZDIPLEN  ; ZDIPLEN  >> =  1.449076466423E+01

@ FREQUENCY DEPENDENT SECOND ORDER PROPERTIES WITH FREQUENCY :

@    a.u.:  2.0159312D-02
@    cm-1:  4.4244576D+03
@    eV  :  5.4856280D-01
@  kJ/mol:  5.2928267D+01
@    nm  :  2.2601640D+03

@ -<< ZDIPLEN  ; ZDIPLEN  >> =  1.450748395083E+01

@ FREQUENCY DEPENDENT SECOND ORDER PROPERTIES WITH FREQUENCY :

@    a.u.:  4.0318625D-02
@    cm-1:  8.8489153D+03
@    eV  :  1.0971256D+00
@  kJ/mol:  1.0585653D+02
@    nm  :  1.1300820D+03

@ -<< ZDIPLEN  ; ZDIPLEN  >> =  1.455793147756E+01

@ FREQUENCY DEPENDENT SECOND ORDER PROPERTIES WITH FREQUENCY :

@    a.u.:  6.0477937D-02
@    cm-1:  1.3273373D+04
@    eV  :  1.6456884D+00
@  kJ/mol:  1.5878480D+02
@    nm  :  7.5338801D+02

@ -<< ZDIPLEN  ; ZDIPLEN  >> =  1.464299022365E+01

@ FREQUENCY DEPENDENT SECOND ORDER PROPERTIES WITH FREQUENCY :

@    a.u.:  8.0637250D-02
@    cm-1:  1.7697831D+04
@    eV  :  2.1942512D+00
@  kJ/mol:  2.1171307D+02
@    nm  :  5.6504101D+02

@ -<< ZDIPLEN  ; ZDIPLEN  >> =  1.476417977150E+01

@ FREQUENCY DEPENDENT SECOND ORDER PROPERTIES WITH FREQUENCY :

@    a.u.:  1.0079656D-01
@    cm-1:  2.2122288D+04
@    eV  :  2.7428140D+00
@  kJ/mol:  2.6464133D+02
@    nm  :  4.5203281D+02

@ -<< ZDIPLEN  ; ZDIPLEN  >> =  1.492373320224E+01

@ FREQUENCY DEPENDENT SECOND ORDER PROPERTIES WITH FREQUENCY :

@    a.u.:  1.2095587D-01
@    cm-1:  2.6546746D+04
@    eV  :  3.2913768D+00
@  kJ/mol:  3.1756960D+02
@    nm  :  3.7669400D+02

@ -<< ZDIPLEN  ; ZDIPLEN  >> =  1.512471555731E+01

@ FREQUENCY DEPENDENT SECOND ORDER PROPERTIES WITH FREQUENCY :

@    a.u.:  1.4111519D-01
@    cm-1:  3.0971203D+04
@    eV  :  3.8399396D+00
@  kJ/mol:  3.7049787D+02
@    nm  :  3.2288058D+02

@ -<< ZDIPLEN  ; ZDIPLEN  >> =  1.537119693313E+01

@ FREQUENCY DEPENDENT SECOND ORDER PROPERTIES WITH FREQUENCY :

@    a.u.:  1.6127450D-01
@    cm-1:  3.5395661D+04
@    eV  :  4.3885024D+00
@  kJ/mol:  4.2342613D+02
@    nm  :  2.8252050D+02

@ -<< ZDIPLEN  ; ZDIPLEN  >> =  1.566850093387E+01


 Time used in linear response calculation is      0.37 CPU seconds for symmetry 1
 ----------------------------------------------------------------
 ----- Linear response calculation
 ----- Symmetry of excitation/property operator(s)    2  ( B1 )
 ----------------------------------------------------------------

 Number of excitations of this symmetry            0
 Number of response properties of this symmetry    1
 Number of C6/C8 properties of this symmetry       0


 Perturbation symmetry.     KSYMOP:           2
 Perturbation spin symmetry.TRPLET:           F
 Orbital variables.         KZWOPT:         110
 Configuration variables.   KZCONF:           0
 Total number of variables. KZVAR :         110


 RSPLR -- linear response calculation for symmetry 2  ( B1 )
 RSPLR -- operator label : XDIPLEN 
 RSPLR -- operator spin  :   0
 RSPLR -- frequencies    :     0.000000  0.020159  0.040319  0.060478  0.080637
                               0.100797  0.120956  0.141115  0.161274



 ---  SOLVING SETS OF LINEAR EQUATIONS FOR LINEAR RESPONSE PROPERTIES ---

 Operator symmetry = 2  ( B1 ); triplet =   F


 ** RSPCTL MICROITERATION NUMBER    1

       No.  Residual tot.,    conf., and orb.    Bnorm      Frequency 
      ----------------------------------------------------------------
         1    8.51757D-01  0.00D+00  8.52D-01  2.78D+00    0.00000D+00
         2    8.53652D-01  0.00D+00  8.54D-01  2.79D+00    2.01593D-02
         3    8.59416D-01  0.00D+00  8.59D-01  2.82D+00    4.03186D-02
         4    8.69293D-01  0.00D+00  8.69D-01  2.86D+00    6.04779D-02
         5    8.83717D-01  0.00D+00  8.84D-01  2.93D+00    8.06372D-02
         6    9.03352D-01  0.00D+00  9.03D-01  3.02D+00    1.00797D-01
         7    9.29169D-01  0.00D+00  9.29D-01  3.14D+00    1.20956D-01
         8    9.62554D-01  0.00D+00  9.63D-01  3.28D+00    1.41115D-01
         9    1.00549D+00  0.00D+00  1.01D+00  3.47D+00    1.61274D-01

 ** RSPCTL MICROITERATION NUMBER    2

       No.  Residual tot.,    conf., and orb.    Bnorm      Frequency 
      ----------------------------------------------------------------
         1    1.39699D-01  0.00D+00  1.40D-01  2.85D+00    0.00000D+00
         2    1.40249D-01  0.00D+00  1.40D-01  2.86D+00    2.01593D-02
         3    1.41930D-01  0.00D+00  1.42D-01  2.89D+00    4.03186D-02
         4    1.44847D-01  0.00D+00  1.45D-01  2.95D+00    6.04779D-02
         5    1.49192D-01  0.00D+00  1.49D-01  3.03D+00    8.06372D-02
         6    1.55274D-01  0.00D+00  1.55D-01  3.14D+00    1.00797D-01
         7    1.63568D-01  0.00D+00  1.64D-01  3.28D+00    1.20956D-01
         8    1.74817D-01  0.00D+00  1.75D-01  3.47D+00    1.41115D-01
         9    1.90188D-01  0.00D+00  1.90D-01  3.72D+00    1.61274D-01

 ** RSPCTL MICROITERATION NUMBER    3

       No.  Residual tot.,    conf., and orb.    Bnorm      Frequency 
      ----------------------------------------------------------------
         1    2.04339D-02  0.00D+00  2.04D-02  2.85D+00    0.00000D+00
         2    2.05737D-02  0.00D+00  2.06D-02  2.86D+00    2.01593D-02
         3    2.10049D-02  0.00D+00  2.10D-02  2.90D+00    4.03186D-02
         4    2.17644D-02  0.00D+00  2.18D-02  2.95D+00    6.04779D-02
         5    2.29190D-02  0.00D+00  2.29D-02  3.03D+00    8.06372D-02
         6    2.45749D-02  0.00D+00  2.46D-02  3.14D+00    1.00797D-01
         7    2.68933D-02  0.00D+00  2.69D-02  3.29D+00    1.20956D-01
         8    3.01189D-02  0.00D+00  3.01D-02  3.48D+00    1.41115D-01
         9    3.46288D-02  0.00D+00  3.46D-02  3.73D+00    1.61274D-01

 ** RSPCTL MICROITERATION NUMBER    4

       No.  Residual tot.,    conf., and orb.    Bnorm      Frequency 
      ----------------------------------------------------------------
         1    1.05473D-03  0.00D+00  1.05D-03  2.85D+00    0.00000D+00
         2    1.06705D-03  0.00D+00  1.07D-03  2.86D+00    2.01593D-02
         3    1.10601D-03  0.00D+00  1.11D-03  2.90D+00    4.03186D-02
         4    1.17762D-03  0.00D+00  1.18D-03  2.95D+00    6.04779D-02
         5    1.29210D-03  0.00D+00  1.29D-03  3.03D+00    8.06372D-02
         6    1.46422D-03  0.00D+00  1.46D-03  3.14D+00    1.00797D-01
         7    1.71430D-03  0.00D+00  1.71D-03  3.29D+00    1.20956D-01
         8    2.07062D-03  0.00D+00  2.07D-03  3.48D+00    1.41115D-01
         9    2.57458D-03  0.00D+00  2.57D-03  3.73D+00    1.61274D-01

 *** THE REQUESTED    9 SOLUTION VECTORS CONVERGED

 Convergence of RSP solution vectors, threshold = 1.00D-03
 ---------------------------------------------------------------
 (dimension of paired reduced space:   72)
 RSP solution vector no.    1; norm of residual   3.70D-04
 RSP solution vector no.    2; norm of residual   3.73D-04
 RSP solution vector no.    3; norm of residual   3.82D-04
 RSP solution vector no.    4; norm of residual   3.99D-04
 RSP solution vector no.    5; norm of residual   4.26D-04
 RSP solution vector no.    6; norm of residual   4.66D-04
 RSP solution vector no.    7; norm of residual   5.21D-04
 RSP solution vector no.    8; norm of residual   5.95D-04
 RSP solution vector no.    9; norm of residual   6.90D-04

 *** RSPCTL MICROITERATIONS CONVERGED


           Final output of second order properties from linear response
           ------------------------------------------------------------


@ Spin symmetry of operators: singlet

 Note that minus the linear response function: - << A; B >>(omega) is printed.
 The results are of quadratic accuracy using Sellers formula.

@ FREQUENCY INDEPENDENT SECOND ORDER PROPERTIES

@ -<< XDIPLEN  ; XDIPLEN  >> =  1.124168092793E+01

@ FREQUENCY DEPENDENT SECOND ORDER PROPERTIES WITH FREQUENCY :

@    a.u.:  2.0159312D-02
@    cm-1:  4.4244576D+03
@    eV  :  5.4856280D-01
@  kJ/mol:  5.2928267D+01
@    nm  :  2.2601640D+03

@ -<< XDIPLEN  ; XDIPLEN  >> =  1.125869590022E+01

@ FREQUENCY DEPENDENT SECOND ORDER PROPERTIES WITH FREQUENCY :

@    a.u.:  4.0318625D-02
@    cm-1:  8.8489153D+03
@    eV  :  1.0971256D+00
@  kJ/mol:  1.0585653D+02
@    nm  :  1.1300820D+03

@ -<< XDIPLEN  ; XDIPLEN  >> =  1.131030087477E+01

@ FREQUENCY DEPENDENT SECOND ORDER PROPERTIES WITH FREQUENCY :

@    a.u.:  6.0477937D-02
@    cm-1:  1.3273373D+04
@    eV  :  1.6456884D+00
@  kJ/mol:  1.5878480D+02
@    nm  :  7.5338801D+02

@ -<< XDIPLEN  ; XDIPLEN  >> =  1.139823560662E+01

@ FREQUENCY DEPENDENT SECOND ORDER PROPERTIES WITH FREQUENCY :

@    a.u.:  8.0637250D-02
@    cm-1:  1.7697831D+04
@    eV  :  2.1942512D+00
@  kJ/mol:  2.1171307D+02
@    nm  :  5.6504101D+02

@ -<< XDIPLEN  ; XDIPLEN  >> =  1.152561153485E+01

@ FREQUENCY DEPENDENT SECOND ORDER PROPERTIES WITH FREQUENCY :

@    a.u.:  1.0079656D-01
@    cm-1:  2.2122288D+04
@    eV  :  2.7428140D+00
@  kJ/mol:  2.6464133D+02
@    nm  :  4.5203281D+02

@ -<< XDIPLEN  ; XDIPLEN  >> =  1.169728095300E+01

@ FREQUENCY DEPENDENT SECOND ORDER PROPERTIES WITH FREQUENCY :

@    a.u.:  1.2095587D-01
@    cm-1:  2.6546746D+04
@    eV  :  3.2913768D+00
@  kJ/mol:  3.1756960D+02
@    nm  :  3.7669400D+02

@ -<< XDIPLEN  ; XDIPLEN  >> =  1.192047786300E+01

@ FREQUENCY DEPENDENT SECOND ORDER PROPERTIES WITH FREQUENCY :

@    a.u.:  1.4111519D-01
@    cm-1:  3.0971203D+04
@    eV  :  3.8399396D+00
@  kJ/mol:  3.7049787D+02
@    nm  :  3.2288058D+02

@ -<< XDIPLEN  ; XDIPLEN  >> =  1.220591768809E+01

@ FREQUENCY DEPENDENT SECOND ORDER PROPERTIES WITH FREQUENCY :

@    a.u.:  1.6127450D-01
@    cm-1:  3.5395661D+04
@    eV  :  4.3885024D+00
@  kJ/mol:  4.2342613D+02
@    nm  :  2.8252050D+02

@ -<< XDIPLEN  ; XDIPLEN  >> =  1.256973488328E+01


 Time used in linear response calculation is      0.27 CPU seconds for symmetry 2
 ----------------------------------------------------------------
 ----- Linear response calculation
 ----- Symmetry of excitation/property operator(s)    3  ( B2 )
 ----------------------------------------------------------------

 Number of excitations of this symmetry            0
 Number of response properties of this symmetry    1
 Number of C6/C8 properties of this symmetry       0


 Perturbation symmetry.     KSYMOP:           3
 Perturbation spin symmetry.TRPLET:           F
 Orbital variables.         KZWOPT:         110
 Configuration variables.   KZCONF:           0
 Total number of variables. KZVAR :         110


 RSPLR -- linear response calculation for symmetry 3  ( B2 )
 RSPLR -- operator label : YDIPLEN 
 RSPLR -- operator spin  :   0
 RSPLR -- frequencies    :     0.000000  0.020159  0.040319  0.060478  0.080637
                               0.100797  0.120956  0.141115  0.161274



 ---  SOLVING SETS OF LINEAR EQUATIONS FOR LINEAR RESPONSE PROPERTIES ---

 Operator symmetry = 3  ( B2 ); triplet =   F


 ** RSPCTL MICROITERATION NUMBER    1

       No.  Residual tot.,    conf., and orb.    Bnorm      Frequency 
      ----------------------------------------------------------------
         1    8.51840D-01  0.00D+00  8.52D-01  2.78D+00    0.00000D+00
         2    8.53750D-01  0.00D+00  8.54D-01  2.79D+00    2.01593D-02
         3    8.59561D-01  0.00D+00  8.60D-01  2.82D+00    4.03186D-02
         4    8.69517D-01  0.00D+00  8.70D-01  2.86D+00    6.04779D-02
         5    8.84052D-01  0.00D+00  8.84D-01  2.93D+00    8.06372D-02
         6    9.03833D-01  0.00D+00  9.04D-01  3.02D+00    1.00797D-01
         7    9.29830D-01  0.00D+00  9.30D-01  3.14D+00    1.20956D-01
         8    9.63430D-01  0.00D+00  9.63D-01  3.28D+00    1.41115D-01
         9    1.00661D+00  0.00D+00  1.01D+00  3.47D+00    1.61274D-01

 ** RSPCTL MICROITERATION NUMBER    2

       No.  Residual tot.,    conf., and orb.    Bnorm      Frequency 
      ----------------------------------------------------------------
         1    1.27925D-01  0.00D+00  1.28D-01  2.85D+00    0.00000D+00
         2    1.28420D-01  0.00D+00  1.28D-01  2.86D+00    2.01593D-02
         3    1.29939D-01  0.00D+00  1.30D-01  2.89D+00    4.03186D-02
         4    1.32583D-01  0.00D+00  1.33D-01  2.95D+00    6.04779D-02
         5    1.36542D-01  0.00D+00  1.37D-01  3.03D+00    8.06372D-02
         6    1.42120D-01  0.00D+00  1.42D-01  3.14D+00    1.00797D-01
         7    1.49791D-01  0.00D+00  1.50D-01  3.28D+00    1.20956D-01
         8    1.60293D-01  0.00D+00  1.60D-01  3.47D+00    1.41115D-01
         9    1.74800D-01  0.00D+00  1.75D-01  3.72D+00    1.61274D-01

 ** RSPCTL MICROITERATION NUMBER    3

       No.  Residual tot.,    conf., and orb.    Bnorm      Frequency 
      ----------------------------------------------------------------
         1    1.91823D-02  0.00D+00  1.92D-02  2.85D+00    0.00000D+00
         2    1.92910D-02  0.00D+00  1.93D-02  2.86D+00    2.01593D-02
         3    1.96266D-02  0.00D+00  1.96D-02  2.90D+00    4.03186D-02
         4    2.02193D-02  0.00D+00  2.02D-02  2.95D+00    6.04779D-02
         5    2.11238D-02  0.00D+00  2.11D-02  3.03D+00    8.06372D-02
         6    2.24282D-02  0.00D+00  2.24D-02  3.14D+00    1.00797D-01
         7    2.42677D-02  0.00D+00  2.43D-02  3.29D+00    1.20956D-01
         8    2.68489D-02  0.00D+00  2.68D-02  3.48D+00    1.41115D-01
         9    3.04931D-02  0.00D+00  3.05D-02  3.73D+00    1.61274D-01

 ** RSPCTL MICROITERATION NUMBER    4

       No.  Residual tot.,    conf., and orb.    Bnorm      Frequency 
      ----------------------------------------------------------------
         1    1.23595D-03  0.00D+00  1.24D-03  2.85D+00    0.00000D+00
         2    1.24512D-03  0.00D+00  1.25D-03  2.86D+00    2.01593D-02
         3    1.27390D-03  0.00D+00  1.27D-03  2.90D+00    4.03186D-02
         4    1.32634D-03  0.00D+00  1.33D-03  2.95D+00    6.04779D-02
         5    1.40960D-03  0.00D+00  1.41D-03  3.03D+00    8.06372D-02
         6    1.53468D-03  0.00D+00  1.53D-03  3.14D+00    1.00797D-01
         7    1.71759D-03  0.00D+00  1.72D-03  3.29D+00    1.20956D-01
         8    1.98139D-03  0.00D+00  1.98D-03  3.48D+00    1.41115D-01
         9    2.36007D-03  0.00D+00  2.36D-03  3.73D+00    1.61274D-01

 *** THE REQUESTED    9 SOLUTION VECTORS CONVERGED

 Convergence of RSP solution vectors, threshold = 1.00D-03
 ---------------------------------------------------------------
 (dimension of paired reduced space:   72)
 RSP solution vector no.    1; norm of residual   4.33D-04
 RSP solution vector no.    2; norm of residual   4.35D-04
 RSP solution vector no.    3; norm of residual   4.40D-04
 RSP solution vector no.    4; norm of residual   4.49D-04
 RSP solution vector no.    5; norm of residual   4.65D-04
 RSP solution vector no.    6; norm of residual   4.88D-04
 RSP solution vector no.    7; norm of residual   5.22D-04
 RSP solution vector no.    8; norm of residual   5.70D-04
 RSP solution vector no.    9; norm of residual   6.33D-04

 *** RSPCTL MICROITERATIONS CONVERGED


           Final output of second order properties from linear response
           ------------------------------------------------------------


@ Spin symmetry of operators: singlet

 Note that minus the linear response function: - << A; B >>(omega) is printed.
 The results are of quadratic accuracy using Sellers formula.

@ FREQUENCY INDEPENDENT SECOND ORDER PROPERTIES

@ -<< YDIPLEN  ; YDIPLEN  >> =  1.124168089982E+01

@ FREQUENCY DEPENDENT SECOND ORDER PROPERTIES WITH FREQUENCY :

@    a.u.:  2.0159312D-02
@    cm-1:  4.4244576D+03
@    eV  :  5.4856280D-01
@  kJ/mol:  5.2928267D+01
@    nm  :  2.2601640D+03

@ -<< YDIPLEN  ; YDIPLEN  >> =  1.125869587165E+01

@ FREQUENCY DEPENDENT SECOND ORDER PROPERTIES WITH FREQUENCY :

@    a.u.:  4.0318625D-02
@    cm-1:  8.8489153D+03
@    eV  :  1.0971256D+00
@  kJ/mol:  1.0585653D+02
@    nm  :  1.1300820D+03

@ -<< YDIPLEN  ; YDIPLEN  >> =  1.131030084482E+01

@ FREQUENCY DEPENDENT SECOND ORDER PROPERTIES WITH FREQUENCY :

@    a.u.:  6.0477937D-02
@    cm-1:  1.3273373D+04
@    eV  :  1.6456884D+00
@  kJ/mol:  1.5878480D+02
@    nm  :  7.5338801D+02

@ -<< YDIPLEN  ; YDIPLEN  >> =  1.139823557431E+01

@ FREQUENCY DEPENDENT SECOND ORDER PROPERTIES WITH FREQUENCY :

@    a.u.:  8.0637250D-02
@    cm-1:  1.7697831D+04
@    eV  :  2.1942512D+00
@  kJ/mol:  2.1171307D+02
@    nm  :  5.6504101D+02

@ -<< YDIPLEN  ; YDIPLEN  >> =  1.152561149908E+01

@ FREQUENCY DEPENDENT SECOND ORDER PROPERTIES WITH FREQUENCY :

@    a.u.:  1.0079656D-01
@    cm-1:  2.2122288D+04
@    eV  :  2.7428140D+00
@  kJ/mol:  2.6464133D+02
@    nm  :  4.5203281D+02

@ -<< YDIPLEN  ; YDIPLEN  >> =  1.169728091254E+01

@ FREQUENCY DEPENDENT SECOND ORDER PROPERTIES WITH FREQUENCY :

@    a.u.:  1.2095587D-01
@    cm-1:  2.6546746D+04
@    eV  :  3.2913768D+00
@  kJ/mol:  3.1756960D+02
@    nm  :  3.7669400D+02

@ -<< YDIPLEN  ; YDIPLEN  >> =  1.192047781643E+01

@ FREQUENCY DEPENDENT SECOND ORDER PROPERTIES WITH FREQUENCY :

@    a.u.:  1.4111519D-01
@    cm-1:  3.0971203D+04
@    eV  :  3.8399396D+00
@  kJ/mol:  3.7049787D+02
@    nm  :  3.2288058D+02

@ -<< YDIPLEN  ; YDIPLEN  >> =  1.220591763372E+01

@ FREQUENCY DEPENDENT SECOND ORDER PROPERTIES WITH FREQUENCY :

@    a.u.:  1.6127450D-01
@    cm-1:  3.5395661D+04
@    eV  :  4.3885024D+00
@  kJ/mol:  4.2342613D+02
@    nm  :  2.8252050D+02

@ -<< YDIPLEN  ; YDIPLEN  >> =  1.256973481905E+01


 Time used in linear response calculation is      0.25 CPU seconds for symmetry 3

  Total CPU  time used in RESPONSE:   0.89 seconds
  Total wall time used in RESPONSE:   0.90 seconds


                   .-------------------------------------------.
                   | End of Dynamic Property Section (RESPONS) |
                   `-------------------------------------------'

  Total CPU  time used in DALTON:   1.25 seconds
  Total wall time used in DALTON:   1.28 seconds

 
     Date and time (Linux)  : Wed Jan 11 15:39:23 2023
     Host name              : cn016                                   
