

     ************************************************************************
     *************** Dalton - An Electronic Structure Program ***************
     ************************************************************************

    This is output from DALTON release Dalton2020.0 (2020)
         ( Web site: http://daltonprogram.org )

   ----------------------------------------------------------------------------

    NOTE:
     
    Dalton is an experimental code for the evaluation of molecular
    properties using (MC)SCF, DFT, CI, and CC wave functions.
    The authors accept no responsibility for the performance of
    the code or for the correctness of the results.
     
    The code (in whole or part) is provided under a licence and
    is not to be reproduced for further distribution without
    the written permission of the authors or their representatives.
     
    See the home page "http://daltonprogram.org" for further information.
     
    If results obtained with this code are published,
    the appropriate citations would be both of:
     
       K. Aidas, C. Angeli, K. L. Bak, V. Bakken, R. Bast,
       L. Boman, O. Christiansen, R. Cimiraglia, S. Coriani,
       P. Dahle, E. K. Dalskov, U. Ekstroem,
       T. Enevoldsen, J. J. Eriksen, P. Ettenhuber, B. Fernandez,
       L. Ferrighi, H. Fliegl, L. Frediani, K. Hald, A. Halkier,
       C. Haettig, H. Heiberg, T. Helgaker, A. C. Hennum,
       H. Hettema, E. Hjertenaes, S. Hoest, I.-M. Hoeyvik,
       M. F. Iozzi, B. Jansik, H. J. Aa. Jensen, D. Jonsson,
       P. Joergensen, J. Kauczor, S. Kirpekar,
       T. Kjaergaard, W. Klopper, S. Knecht, R. Kobayashi, H. Koch,
       J. Kongsted, A. Krapp, K. Kristensen, A. Ligabue,
       O. B. Lutnaes, J. I. Melo, K. V. Mikkelsen, R. H. Myhre,
       C. Neiss, C. B. Nielsen, P. Norman, J. Olsen,
       J. M. H. Olsen, A. Osted, M. J. Packer, F. Pawlowski,
       T. B. Pedersen, P. F. Provasi, S. Reine, Z. Rinkevicius,
       T. A. Ruden, K. Ruud, V. Rybkin, P. Salek, C. C. M. Samson,
       A. Sanchez de Meras, T. Saue, S. P. A. Sauer,
       B. Schimmelpfennig, K. Sneskov, A. H. Steindal,
       K. O. Sylvester-Hvid, P. R. Taylor, A. M. Teale,
       E. I. Tellgren, D. P. Tew, A. J. Thorvaldsen, L. Thoegersen,
       O. Vahtras, M. A. Watson, D. J. D. Wilson, M. Ziolkowski
       and H. Agren,
       "The Dalton quantum chemistry program system",
       WIREs Comput. Mol. Sci. 2014, 4:269–284 (doi: 10.1002/wcms.1172)
     
    and
     
       Dalton, a molecular electronic structure program,
       Release Dalton2020.0 (2020), see http://daltonprogram.org
   ----------------------------------------------------------------------------

    Authors in alphabetical order (Major contribution(s) in parenthesis):

  Kestutis Aidas,           Vilnius University,           Lithuania   (QM/MM)
  Celestino Angeli,         University of Ferrara,        Italy       (NEVPT2)
  Keld L. Bak,              UNI-C,                        Denmark     (AOSOPPA, non-adiabatic coupling, magnetic properties)
  Vebjoern Bakken,          University of Oslo,           Norway      (DALTON; geometry optimizer, symmetry detection)
  Radovan Bast,             UiT The Arctic U. of Norway,  Norway      (DALTON installation and execution frameworks)
  Pablo Baudin,             University of Valencia,       Spain       (Cholesky excitation energies)
  Linus Boman,              NTNU,                         Norway      (Cholesky decomposition and subsystems)
  Bruno N. Cabral Tenorio,  Technical Univ. of Denmark,   Denmark     (Lanczos-based CC methods)
  Ove Christiansen,         Aarhus University,            Denmark     (CC module)
  Renzo Cimiraglia,         University of Ferrara,        Italy       (NEVPT2)
  Sonia Coriani,            Technical Univ. of Denmark,   Denmark     (CC and RESPONS modules)
  Janusz Cukras,            University of Warsaw,         Poland      (MChD in RESPONS)
  Paal Dahle,               University of Oslo,           Norway      (Parallelization)
  Erik K. Dalskov,          UNI-C,                        Denmark     (SOPPA)
  Thomas Enevoldsen,        Univ. of Southern Denmark,    Denmark     (SOPPA)
  Janus J. Eriksen,         Aarhus University,            Denmark     (Polarizable embedding, TDA)
  Rasmus Faber,             Technical Univ. of Denmark,   Denmark     (Vib.avg. NMR w. SOPPA, parallel AO-SOPPA, CVS-CC and EOMCC)
  Tobias Fahleson,          KTH Stockholm,                Sweden      (Damped cubic response)
  Berta Fernandez,          U. of Santiago de Compostela, Spain       (Doublet spin, ESR in RESPONS)
  Lara Ferrighi,            Aarhus University,            Denmark     (PCM Cubic response)
  Heike Fliegl,             University of Oslo,           Norway      (CCSD(R12))
  Luca Frediani,            UiT The Arctic U. of Norway,  Norway      (PCM)
  Emmanuel Fromager,        Univ. Strasbourg,             France      (MC-srDFT)
  Bin Gao,                  UiT The Arctic U. of Norway,  Norway      (Gen1Int library)
  Andre S. P. Gomes,        CNRS/Universite de Lille,     France      (Frozen density embedding)
  Christof Haettig,         Ruhr-University Bochum,       Germany     (CC module)
  Kasper Hald,              Aarhus University,            Denmark     (CC module)
  Asger Halkier,            Aarhus University,            Denmark     (CC module)
  Frederik Beyer Hansen,    University of Copenhagen,     Denmark     (Parallel AO-SOPPA)
  Erik D. Hedegaard,        Univ. of Southern Denmark,    Denmark     (Polarizable embedding, QM/MM, and MC-srDFT)
  Hanne Heiberg,            University of Oslo,           Norway      (Geometry analysis, selected one-electron integrals)
  Trygve Helgaker,          University of Oslo,           Norway      (DALTON; ABACUS, ERI, DFT modules, London, and much more)
  Alf Christian Hennum,     University of Oslo,           Norway      (Parity violation)
  Hinne Hettema,            University of Auckland,       New Zealand (Quadratic response in RESPONS; SIRIUS supersymmetry)
  Eirik Hjertenaes,         NTNU,                         Norway      (Cholesky decomposition)
  Pi A. B. Haase,           University of Copenhagen,     Denmark     (Triplet AO-SOPPA)
  Maria Francesca Iozzi,    University of Oslo,           Norway      (RPA)
  Christoph Jacob           TU Braunschweig               Germany     (Frozen density embedding)
  Brano Jansik              Technical Univ. of Ostrava    Czech Rep.  (DFT cubic response)
  Hans Joergen Aa. Jensen,  Univ. of Southern Denmark,    Denmark     (DALTON; SIRIUS, RESPONS, ABACUS, MC-srDFT, and much more)
  Dan Jonsson,              UiT The Arctic U. of Norway,  Norway      (Cubic response in RESPONS module)
  Poul Joergensen,          Aarhus University,            Denmark     (RESPONS, ABACUS, and CC modules)
  Maciej Kaminski,          University of Warsaw,         Poland      (CPPh in RESPONS)
  Joanna Kauczor,           Linkoeping University,        Sweden      (Complex polarization propagator (CPP) module)
  Sheela Kirpekar,          Univ. of Southern Denmark,    Denmark     (Mass-velocity & Darwin integrals)
  Erik Kjellgren,           Univ. of Southern Denmark,    Denmark     (MC-srDFT)
  Wim Klopper,              KIT Karlsruhe,                Germany     (R12 code in CC, SIRIUS, and ABACUS modules)
  Stefan Knecht,            ETH Zurich,                   Switzerland (Parallel CI and MCSCF, MC-srDFT)
  Rika Kobayashi,           Australian National Univ.,    Australia   (DIIS in CC, London in MCSCF)
  Henrik Koch,              NTNU,                         Norway      (CC module, Cholesky decomposition)
  Jacob Kongsted,           Univ. of Southern Denmark,    Denmark     (Polarizable embedding, polarizable density embedding, QM/MM)
  Andrea Ligabue,           University of Modena,         Italy       (CTOCD, AOSOPPA)
  Nanna H. List             Univ. of Southern Denmark,    Denmark     (Polarizable embedding)
  Ola B. Lutnaes,           University of Oslo,           Norway      (DFT Hessian)
  Juan I. Melo,             University of Buenos Aires,   Argentina   (LRESC, Relativistic Effects on NMR Shieldings)
  Kurt V. Mikkelsen,        University of Copenhagen,     Denmark     (MC-SCRF and QM/MM)
  Rolf H. Myhre,            NTNU,                         Norway      (Subsystems and CC3)
  Christian Neiss,          Univ. Erlangen-Nuernberg,     Germany     (CCSD(R12))
  Christian B. Nielsen,     University of Copenhagen,     Denmark     (QM/MM)
  Patrick Norman,           KTH Stockholm,                Sweden      (Cubic response and complex frequency response in RESPONS)
  Jeppe Olsen,              Aarhus University,            Denmark     (SIRIUS CI/density modules)
  Jogvan Magnus H. Olsen,   Aarhus University,            Denmark     (Polarizable embedding and polarizable density embedding)
  Anders Osted,             Copenhagen University,        Denmark     (QM/MM)
  Martin J. Packer,         University of Sheffield,      UK          (SOPPA)
  Filip Pawlowski,          Kazimierz Wielki University,  Poland      (CC3)
  Morten N. Pedersen,       Univ. of Southern Denmark,    Denmark     (Polarizable embedding)
  Thomas B. Pedersen,       University of Oslo,           Norway      (Cholesky decomposition)
  Patricio F. Provasi,      University of Northeastern,   Argentina   (Analysis of coupling constants in localized orbitals)
  Peter Reinholdt,          Univ. of Southern Denmark,    Denmark     (Polarizable embedding and polarizable density embedding)
  Zilvinas Rinkevicius,     KTH Stockholm,                Sweden      (open-shell DFT, ESR)
  Elias Rudberg,            KTH Stockholm,                Sweden      (DFT grid and basis info)
  Torgeir A. Ruden,         University of Oslo,           Norway      (Numerical derivatives in ABACUS)
  Kenneth Ruud,             UiT The Arctic U. of Norway,  Norway      (DALTON; ABACUS magnetic properties and much more)
  Pawel Salek,              KTH Stockholm,                Sweden      (DALTON; DFT code)
  Claire C. M. Samson       University of Karlsruhe       Germany     (Boys localization, r12 integrals in ERI)
  Alfredo Sanchez de Meras, University of Valencia,       Spain       (CC module, Cholesky decomposition)
  Trond Saue,               Paul Sabatier University,     France      (direct Fock matrix construction)
  Stephan P. A. Sauer,      University of Copenhagen,     Denmark     (SOPPA(CCSD), SOPPA prop., AOSOPPA, vibrational g-factors)
  Bernd Schimmelpfennig,    Forschungszentrum Karlsruhe,  Germany     (AMFI module)
  Anna K. Schnack-Petersen, University of Copenhagen,     Denmark     (RPA(D) and HRPA(D) properties in AOSOPPA)
  Kristian Sneskov,         Aarhus University,            Denmark     (Polarizable embedding, QM/MM)
  Arnfinn H. Steindal,      UiT The Arctic U. of Norway,  Norway      (parallel QM/MM, polarizable embedding)
  Casper Steinmann,         Aalborg University,           Denmark     (QFIT, polarizable embedding)
  K. O. Sylvester-Hvid,     University of Copenhagen,     Denmark     (MC-SCRF)
  Peter R. Taylor,          VLSCI/Univ. of Melbourne,     Australia   (Symmetry handling ABACUS, integral transformation)
  Andrew M. Teale,          University of Nottingham,     England     (DFT-AC, DFT-D)
  David P. Tew,             University of Bristol,        England     (CCSD(R12))
  Julien Toulouse,          Sorbonne Univ.,               France      (MC-srDFT)
  Olav Vahtras,             KTH Stockholm,                Sweden      (Triplet response, spin-orbit, ESR, TDDFT, open-shell DFT)
  Lucas Visscher,           Vrije Universiteit Amsterdam, Netherlands (Frozen density embedding)
  David J. Wilson,          La Trobe University,          Australia   (DFT Hessian and DFT magnetizabilities)
  Hans Agren,               KTH Stockholm,                Sweden      (SIRIUS module, RESPONS, MC-SCRF solvation)
 --------------------------------------------------------------------------------

     Date and time (Linux)  : Wed Jan 11 14:14:51 2023
     Host name              : cn023                                   

 * Work memory size             :    64000000 =  488.28 megabytes.

 * Directories for basis set searches:
   1) /gpfs/projects/rjh/adrian/fd_compare/dalton/hf/CO/dipole
   2) /gpfs/projects/rjh/adrian/dalton/build/basis


Compilation information
-----------------------

 Who compiled             | ahurtado
 Host                     | sn-mem
 System                   | Linux-3.10.0-1160.24.1.el7.x86_64
 CMake generator          | Unix Makefiles
 Processor                | x86_64
 64-bit integers          | OFF
 MPI                      | ON
 Fortran compiler         | /gpfs/software/intel/oneAPI/2021_4/mpi/2021.4.0/bi
                          | n/mpif90
 Fortran compiler version | GNU Fortran (GCC) 11.2.0
 C compiler               | /gpfs/software/intel/oneAPI/2021_4/mpi/2021.4.0/bi
                          | n/mpicc
 C compiler version       | gcc (GCC) 11.2.0
 C++ compiler             | /gpfs/software/intel/oneAPI/2021_4/mpi/2021.4.0/bi
                          | n/mpicxx
 C++ compiler version     | unknown
 BLAS                     | /gpfs/software/intel/oneAPI/2021_4/mkl/2021.4.0/li
                          | b/intel64/libmkl_gf_lp64.so;/gpfs/software/intel/o
                          | neAPI/2021_4/mkl/2021.4.0/lib/intel64/libmkl_seque
                          | ntial.so;/gpfs/software/intel/oneAPI/2021_4/mkl/20
                          | 21.4.0/lib/intel64/libmkl_core.so;/usr/lib64/libpt
                          | hread.so;/usr/lib64/libm.so
 LAPACK                   | /gpfs/software/intel/oneAPI/2021_4/mkl/2021.4.0/li
                          | b/intel64/libmkl_lapack95_lp64.a;/gpfs/software/in
                          | tel/oneAPI/2021_4/mkl/2021.4.0/lib/intel64/libmkl_
                          | gf_lp64.so
 Static linking           | OFF
 Last Git revision        | 66052b3af5ea7225e31178bf9a8b031913c72190
 Git branch               | (HEAD detached at Dalton2020.0)
 Configuration time       | 2023-01-11 13:33:37.731835

 * MPI parallel run using 20 processes.


   Content of the .dal input file
 ----------------------------------

**DALTON INPUT
.RUN RESPONSE
.DIRECT
**WAVE FUNCTIONS
.HF
**RESPONSE
*LINEAR
.DIPLEN
.FREQUENCIES
9
0.0 0.0201593125 0.040318625 0.060477937499999995 0.08063725 0.10079656249999999 0.12095587499999999
**END OF DALTON INPUT


   Content of the .mol file
 ----------------------------

BASIS
aug-cc-pVTZ
blah
blah
Atomtype=2 Atomic
Charge=6 Atoms=1
C_a 0.000000000000 0.000000000000 0.000000000000
Charge=8 Atoms=1
O_a 0.000000000000 0.000000000000 2.132000000000


       *******************************************************************
       *********** Output from DALTON general input processing ***********
       *******************************************************************

 --------------------------------------------------------------------------------
   Overall default print level:    0
   Print level for DALTON.STAT:    1

    Parallel calculation using MPI
    AO-direct calculation (in sections where implemented)
    HERMIT 1- and 2-electron integral sections will be executed
    "Old" integral transformation used (limited to max 255 basis functions)
    Wave function sections will be executed (SIRIUS module)
    Dynamic molecular response properties section will be executed (RESPONSE module)
 --------------------------------------------------------------------------------


   ****************************************************************************
   *************** Output of molecule and basis set information ***************
   ****************************************************************************


    The two title cards from your ".mol" input:
    ------------------------------------------------------------------------
 1: blah                                                                    
 2: blah                                                                    
    ------------------------------------------------------------------------

  Atomic type no.    1
  --------------------
  Nuclear charge:   6.00000
  Number of symmetry independent centers:    1
  Number of basis sets to read;    2
  Basis set file used for this atomic type with Z =   6 :
     "/gpfs/projects/rjh/adrian/dalton/build/basis/aug-cc-pVTZ"

  Atomic type no.    2
  --------------------
  Nuclear charge:   8.00000
  Number of symmetry independent centers:    1
  Number of basis sets to read;    2
  Basis set file used for this atomic type with Z =   8 :
     "/gpfs/projects/rjh/adrian/dalton/build/basis/aug-cc-pVTZ"


                      SYMADD: Requested addition of symmetry
                      --------------------------------------

 Symmetry test threshold:  5.00E-06

@   The molecule is centered at center of mass and rotated
@   so principal axes of inertia are along coordinate axes.

 Symmetry class found: C(oo,v)        

 Symmetry Independent Centres             
 ----------------------------
O_a    8 :      0.00000000     0.00000000     0.91388025  Isotope  1
C_a    6 :      0.00000000     0.00000000    -1.21811975  Isotope  1

 The following symmetry elements were found:   X  Y     


                         SYMGRP: Point group information
                         -------------------------------

@    Full point group is: C(oo,v)        
@    Represented as:      C2v

@  * The irrep name for each symmetry:    1: A1     2: B1     3: B2     4: A2 

   * The point group was generated by:

      Reflection in the yz-plane
      Reflection in the xz-plane

   * Group multiplication table

        |  E   C2z  Oxz  Oyz
   -----+--------------------
     E  |  E   C2z  Oxz  Oyz
    C2z | C2z   E   Oyz  Oxz
    Oxz | Oxz  Oyz   E   C2z
    Oyz | Oyz  Oxz  C2z   E 

   * Character table

        |  E   C2z  Oxz  Oyz
   -----+--------------------
    A1  |   1    1    1    1
    B1  |   1   -1    1   -1
    B2  |   1   -1   -1    1
    A2  |   1    1   -1   -1

   * Direct product table

        | A1   B1   B2   A2 
   -----+--------------------
    A1  | A1   B1   B2   A2 
    B1  | B1   A1   A2   B2 
    B2  | B2   A2   A1   B1 
    A2  | A2   B2   B1   A1 


                                 Isotopic Masses
                                 ---------------

                           C_a        12.000000
                           O_a        15.994915

                       Total mass:    27.994915 amu
                       Natural abundance:  98.663 %

 Center-of-mass coordinates (a.u.):    0.000000    0.000000    0.000000
 Center-of-mass coordinates (Angs):    0.000000    0.000000    0.000000


  Atoms and basis sets
  --------------------

  Number of atom types :    2
  Total number of atoms:    2

  Basis set used is "aug-cc-pVTZ" from the basis set library.

  label    atoms   charge   prim   cont     basis
  ----------------------------------------------------------------------
  C_          1    6.0000    58    46      [11s6p3d2f|5s4p3d2f]                               
  O_          1    8.0000    58    46      [11s6p3d2f|5s4p3d2f]                               
  ----------------------------------------------------------------------
  total:      2   14.0000   116    92
  ----------------------------------------------------------------------
  Spherical harmonic basis used.

  Threshold for neglecting AO integrals:  1.00D-12


  Cartesian Coordinates (a.u.)
  ----------------------------

  Total number of coordinates:    6
  C_a     :     1  x   0.0000000000    2  y   0.0000000000    3  z  -1.2181197471
  O_a     :     4  x   0.0000000000    5  y   0.0000000000    6  z   0.9138802529


  Symmetry Coordinates
  --------------------

  Number of coordinates in each symmetry:     2    2    2    0

  Symmetry  A1  ( 1)

    1   C_a   z    3
    2   O_a   z    6

  Symmetry  B1  ( 2)

    3   C_a   x    1
    4   O_a   x    4

  Symmetry  B2  ( 3)

    5   C_a   y    2
    6   O_a   y    5


   Interatomic separations (in Angstrom):
   --------------------------------------

            C_a         O_a   
            ------      ------
 C_a   :    0.000000
 O_a   :    1.128206    0.000000


  Max    interatomic separation is    1.1282 Angstrom (    2.1320 Bohr)
  between atoms    2 and    1, "O_a   " and "C_a   ".

  Min YX interatomic separation is    1.1282 Angstrom (    2.1320 Bohr)


  Bond distances (Angstrom):
  --------------------------

                  atom 1     atom 2       distance
                  ------     ------       --------
  bond distance:  O_a        C_a          1.128206




 Principal moments of inertia (u*A**2) and principal axes
 --------------------------------------------------------

   IA       0.000000          0.000000    0.000000    1.000000
   IB       8.726914          0.000000    1.000000    0.000000
   IC       8.726914          1.000000    0.000000    0.000000


 Rotational constants
 --------------------

@    The molecule is linear.

               B =        57910.39 MHz     (    1.931683 cm-1)


@  Nuclear repulsion energy :   22.514071294559 Hartree


  Symmetry Orbitals
  -----------------

  Number of orbitals in each symmetry:          38   22   22   10


  Symmetry  A1 ( 1)

    1     C_a      1s         1
    2     C_a      1s         2
    3     C_a      1s         3
    4     C_a      1s         4
    5     C_a      1s         5
    6     C_a      2pz        8
    7     C_a      2pz       11
    8     C_a      2pz       14
    9     C_a      2pz       17
   10     C_a      3d0       20
   11     C_a      3d2+      22
   12     C_a      3d0       25
   13     C_a      3d2+      27
   14     C_a      3d0       30
   15     C_a      3d2+      32
   16     C_a      4f0       36
   17     C_a      4f2+      38
   18     C_a      4f0       43
   19     C_a      4f2+      45
   20     O_a      1s        47
   21     O_a      1s        48
   22     O_a      1s        49
   23     O_a      1s        50
   24     O_a      1s        51
   25     O_a      2pz       54
   26     O_a      2pz       57
   27     O_a      2pz       60
   28     O_a      2pz       63
   29     O_a      3d0       66
   30     O_a      3d2+      68
   31     O_a      3d0       71
   32     O_a      3d2+      73
   33     O_a      3d0       76
   34     O_a      3d2+      78
   35     O_a      4f0       82
   36     O_a      4f2+      84
   37     O_a      4f0       89
   38     O_a      4f2+      91


  Symmetry  B1 ( 2)

   39     C_a      2px        6
   40     C_a      2px        9
   41     C_a      2px       12
   42     C_a      2px       15
   43     C_a      3d1+      21
   44     C_a      3d1+      26
   45     C_a      3d1+      31
   46     C_a      4f1+      37
   47     C_a      4f3+      39
   48     C_a      4f1+      44
   49     C_a      4f3+      46
   50     O_a      2px       52
   51     O_a      2px       55
   52     O_a      2px       58
   53     O_a      2px       61
   54     O_a      3d1+      67
   55     O_a      3d1+      72
   56     O_a      3d1+      77
   57     O_a      4f1+      83
   58     O_a      4f3+      85
   59     O_a      4f1+      90
   60     O_a      4f3+      92


  Symmetry  B2 ( 3)

   61     C_a      2py        7
   62     C_a      2py       10
   63     C_a      2py       13
   64     C_a      2py       16
   65     C_a      3d1-      19
   66     C_a      3d1-      24
   67     C_a      3d1-      29
   68     C_a      4f3-      33
   69     C_a      4f1-      35
   70     C_a      4f3-      40
   71     C_a      4f1-      42
   72     O_a      2py       53
   73     O_a      2py       56
   74     O_a      2py       59
   75     O_a      2py       62
   76     O_a      3d1-      65
   77     O_a      3d1-      70
   78     O_a      3d1-      75
   79     O_a      4f3-      79
   80     O_a      4f1-      81
   81     O_a      4f3-      86
   82     O_a      4f1-      88


  Symmetry  A2 ( 4)

   83     C_a      3d2-      18
   84     C_a      3d2-      23
   85     C_a      3d2-      28
   86     C_a      4f2-      34
   87     C_a      4f2-      41
   88     O_a      3d2-      64
   89     O_a      3d2-      69
   90     O_a      3d2-      74
   91     O_a      4f2-      80
   92     O_a      4f2-      87

  Symmetries of electric field:  B1 (2)  B2 (3)  A1 (1)

  Symmetries of magnetic field:  B2 (3)  B1 (2)  A2 (4)


                     .---------------------------------------.
                     | Starting in Integral Section (HERMIT) |
                     `---------------------------------------'



 ***************************************************************************************
 ****************** Output from **INTEGRALS input processing (HERMIT) ******************
 ***************************************************************************************


 - Using defaults, no **INTEGRALS input found

 Default print level:        1

 Calculation of one-electron Hamiltonian integrals.

 Center of mass  (bohr):      0.000000000000      0.000000000000      0.000000000000
 Operator center (bohr):      0.000000000000      0.000000000000      0.000000000000
 Gauge origin    (bohr):      0.000000000000      0.000000000000      0.000000000000
 Dipole origin   (bohr):      0.000000000000      0.000000000000      0.000000000000


     ************************************************************************
     ************************** Output from HERINT **************************
     ************************************************************************



                      Nuclear contribution to dipole moments
                      --------------------------------------

                 au               Debye          C m (/(10**-30)

      z      0.00232354         0.00590585         0.01969980


  Total CPU  time used in HERMIT:   0.09 seconds
  Total wall time used in HERMIT:   0.10 seconds


                        .----------------------------------.
                        | End of Integral Section (HERMIT) |
                        `----------------------------------'



                   .--------------------------------------------.
                   | Starting in Wave Function Section (SIRIUS) |
                   `--------------------------------------------'


 *** Output from Huckel module :

     Using EWMO model:          T
     Using EHT  model:          F
     Number of Huckel orbitals each symmetry:    6    2    2    0

 EWMO - Energy Weighted Maximum Overlap - is a Huckel type method,
        which normally is better than Extended Huckel Theory.
 Reference: Linderberg and Ohrn, Propagators in Quantum Chemistry (Wiley, 1973)

 Huckel EWMO eigenvalues for symmetry :  1
          -20.685999     -11.349525      -1.578830      -0.796795      -0.456115
           -0.137637

 Huckel EWMO eigenvalues for symmetry :  2
           -0.717188      -0.305912

 Huckel EWMO eigenvalues for symmetry :  3
           -0.717188      -0.305912

 **********************************************************************
 *SIRIUS* a direct, restricted step, second order MCSCF program       *
 **********************************************************************

 
     Date and time (Linux)  : Wed Jan 11 14:14:51 2023
     Host name              : cn023                                   

 Title lines from ".mol" input file:
     blah                                                                    
     blah                                                                    

 Print level on unit LUPRI =   2 is   0
 Print level on unit LUW4  =   2 is   5

@    Restricted, closed shell Hartree-Fock calculation.

@    Time-dependent Hartree-Fock calculation (random phase approximation).
 Fock matrices are calculated directly and in parallel without use of integrals on disk.

 Initial molecular orbitals are obtained according to
 ".MOSTART EWMO  " input option

     Wave function specification
     ============================
@    Wave function type        --- HF ---
@    Number of closed shell electrons          14
@    Number of electrons in active shells       0
@    Total charge of the molecule               0

@    Spin multiplicity and 2 M_S                1         0
@    Total number of symmetries                 4 (point group: C2v)
@    Reference state symmetry                   1 (irrep name : A1 )

     Orbital specifications
     ======================
@    Abelian symmetry species          All |    1    2    3    4
@                                          |  A1   B1   B2   A2 
                                       --- |  ---  ---  ---  ---
@    Total number of orbitals           92 |   38   22   22   10
@    Number of basis functions          92 |   38   22   22   10

      ** Automatic occupation of RHF orbitals **

      -- Initial occupation of symmetries is determined from extended Huckel guess.           
      -- Initial occupation of symmetries is :
@    Occupied SCF orbitals               7 |    5    1    1    0

     Maximum number of Fock   iterations      0
     Maximum number of DIIS   iterations     60
     Maximum number of QC-SCF iterations     60
     Threshold for SCF convergence     1.00D-05


 ***********************************************
 ***** DIIS acceleration of SCF iterations *****
 ***********************************************

 C1-DIIS algorithm; max error vectors =    8

 Automatic occupation of symmetries with  14 electrons.

 Iter     Total energy    Error norm  Delta(E)    SCF occupation
 -----------------------------------------------------------------------------
   1  Screening settings (-IFTHRS, JTDIIS, DIFDEN, times)   -7    1    T  6.58D-02  6.60D-02
@  1  -112.497807119       2.31D+00  -1.12D+02     5   1   1   0
      Virial theorem: -V/T =      2.005884
@    MULPOP   C_a     0.30; O_a    -0.30; 
   1  Level shift: doubly occupied orbital energies shifted by -2.00D-01
 -----------------------------------------------------------------------------
   2  Screening settings (-IFTHRS, JTDIIS, DIFDEN, times)   -7    2    T  4.35D-02  4.40D-02
@  2  -112.767435433       4.96D-01  -2.70D-01     5   1   1   0
      Virial theorem: -V/T =      1.998807
@    MULPOP   C_a     0.08; O_a    -0.08; 
   2  Level shift: doubly occupied orbital energies shifted by -5.00D-02
 -----------------------------------------------------------------------------
   3  Screening settings (-IFTHRS, JTDIIS, DIFDEN, times)   -7    3    T  4.29D-02  4.30D-02
@  3  -112.780026663       1.26D-01  -1.26D-02     5   1   1   0
      Virial theorem: -V/T =      2.001231
@    MULPOP   C_a     0.14; O_a    -0.14; 
   3  Level shift: doubly occupied orbital energies shifted by -2.50D-02
 -----------------------------------------------------------------------------
   4  Screening settings (-IFTHRS, JTDIIS, DIFDEN, times)  -11    4    F  4.32D-02  4.40D-02
@  4  -112.781232104       6.29D-02  -1.21D-03     5   1   1   0
      Virial theorem: -V/T =      2.002213
@    MULPOP   C_a     0.12; O_a    -0.12; 
   4  Level shift: doubly occupied orbital energies shifted by -1.25D-02
 -----------------------------------------------------------------------------
   5  Screening settings (-IFTHRS, JTDIIS, DIFDEN, times)  -11    5    T  4.27D-02  4.30D-02
@  5  -112.781426488       1.72D-02  -1.94D-04     5   1   1   0
      Virial theorem: -V/T =      2.001562
@    MULPOP   C_a     0.14; O_a    -0.14; 
 -----------------------------------------------------------------------------
   6  Screening settings (-IFTHRS, JTDIIS, DIFDEN, times)  -11    6    T  4.31D-02  4.30D-02
@  6  -112.781446407       3.17D-03  -1.99D-05     5   1   1   0
      Virial theorem: -V/T =      2.001691
@    MULPOP   C_a     0.14; O_a    -0.14; 
 -----------------------------------------------------------------------------
   7  Screening settings (-IFTHRS, JTDIIS, DIFDEN, times)  -11    7    T  4.33D-02  4.30D-02
@  7  -112.781447232       4.82D-04  -8.25D-07     5   1   1   0
      Virial theorem: -V/T =      2.001703
@    MULPOP   C_a     0.14; O_a    -0.14; 
 -----------------------------------------------------------------------------
   8  Screening settings (-IFTHRS, JTDIIS, DIFDEN, times)  -11    8    T  4.32D-02  4.30D-02
@  8  -112.781447257       1.01D-04  -2.48D-08     5   1   1   0
      Virial theorem: -V/T =      2.001705
@    MULPOP   C_a     0.14; O_a    -0.14; 
 -----------------------------------------------------------------------------
   9  Screening settings (-IFTHRS, JTDIIS, DIFDEN, times)  -11    9    T  4.35D-02  4.40D-02
@  9  -112.781447258       1.05D-05  -1.11D-09     5   1   1   0
      Virial theorem: -V/T =      2.001704
@    MULPOP   C_a     0.14; O_a    -0.14; 
 -----------------------------------------------------------------------------
  10  Screening settings (-IFTHRS, JTDIIS, DIFDEN, times)  -11   10    T  4.31D-02  4.30D-02
@ 10  -112.781447258       2.49D-06  -1.67D-11     5   1   1   0

@ *** DIIS converged in  10 iterations !
@     Converged SCF energy, gradient:   -112.781447258213    2.49D-06
    - total time used in SIRFCK :              0.00 seconds


 *** SCF orbital energy analysis ***

 Only the 20 lowest virtual orbital energies printed in each symmetry.

 Number of electrons :   14
 Orbital occupations :    5    1    1    0

 Sym       Hartree-Fock orbital energies

1 A1    -20.66822173   -11.36191634    -1.52310981    -0.80492258    -0.55493112
          0.06925010     0.08789015     0.18530783     0.26883650     0.29616833
          0.39270637     0.50048315     0.67036192     0.72474972     0.79086434
          1.00771151     1.04798806     1.25351793     1.27639250     1.38137103
          1.53768030     2.17851249     2.36146434     2.43785564     2.58286884

2 B1     -0.64055455     0.07029126     0.15390766     0.19820397     0.41447061
          0.50782710     0.84197887     1.07246466     1.08838490     1.21964531
          1.49036551     2.14327940     2.32309060     2.57490202     2.96437481
          3.42019102     3.62436572     3.98796579     5.23261941     6.46654287
          7.10690899

3 B2     -0.64055455     0.07029126     0.15390766     0.19820397     0.41447061
          0.50782710     0.84197887     1.07246466     1.08838490     1.21964531
          1.49036551     2.14327940     2.32309060     2.57490202     2.96437481
          3.42019102     3.62436572     3.98796579     5.23261941     6.46654287
          7.10690899

4 A2      0.29616833     0.72474972     1.04798806     1.27639250     2.17851249
          2.58286884     3.39554430     3.74546647     6.74888943     7.02677017

    E(LUMO) :     0.06925010 au (symmetry 1)
  - E(HOMO) :    -0.55493112 au (symmetry 1)
  ------------------------------------------
    gap     :     0.62418122 au

 --- Writing SIRIFC interface file

 CPU and wall time for SCF :       0.475       0.479


                       .-----------------------------------.
                       | --- Final results from SIRIUS --- |
                       `-----------------------------------'


@    Spin multiplicity:           1
@    Spatial symmetry:            1 ( irrep  A1  in C2v )
@    Total charge of molecule:    0

@    Final HF energy:            -112.781447258213                 
@    Nuclear repulsion:            22.514071294559
@    Electronic energy:          -135.295518552772

@    Final gradient norm:           0.000002485347

 
     Date and time (Linux)  : Wed Jan 11 14:14:52 2023
     Host name              : cn023                                   

File label for MO orbitals:  11Jan23   FOCKDIIS

 (Only coefficients > 0.0100 are printed.)

 Molecular orbitals for symmetry species 1  (A1 )
 ------------------------------------------------

    Orbital         1        2        3        4        5        6        7
   1 C_a :1s     0.0003   0.9998  -0.0194  -0.0026   0.0052  -0.0182   0.0012
   2 C_a :1s     0.0010   0.0019   0.4196   0.5692   0.6216   0.0164  -0.1527
   3 C_a :1s     0.0000   0.0019  -0.0019   0.0004  -0.0049   0.0107  -0.0205
   4 C_a :1s    -0.0012   0.0017  -0.1092  -0.0745   0.1413  -2.3044   0.2475
   5 C_a :1s     0.0001   0.0005   0.0040   0.0058   0.0262  -3.9512   0.9908
   6 C_a :2pz    0.0011   0.0089   0.3354   0.1973  -0.7052  -0.0707   0.1077
   7 C_a :2pz    0.0006  -0.0048  -0.0441  -0.0199   0.0477  -0.2279  -0.0071
   8 C_a :2pz   -0.0006  -0.0029  -0.1209  -0.0703   0.1337  -1.5380   0.4791
   9 C_a :2pz    0.0001   0.0001  -0.0030  -0.0016   0.0007  -1.2686  -1.3509
  10 C_a :3d0    0.0002   0.0014   0.0266   0.0156  -0.0214  -0.0030  -0.0035
  12 C_a :3d0    0.0009  -0.0006   0.0175   0.0104  -0.0141  -0.1626   0.0940
  14 C_a :3d0   -0.0001  -0.0001  -0.0128  -0.0037   0.0099  -0.3584  -0.0985
  18 C_a :4f0    0.0005  -0.0004  -0.0046  -0.0050   0.0064  -0.0455   0.0157
  20 O_a :1s     0.9985  -0.0001  -0.0094  -0.0062  -0.0010   0.0003  -0.0034
  21 O_a :1s    -0.0035   0.0020   0.8196  -0.4797  -0.0672   0.0938   0.0242
  23 O_a :1s     0.0023  -0.0018  -0.1224  -0.1631   0.0386   1.1748  -0.2418
  24 O_a :1s     0.0000  -0.0029  -0.0273  -0.0562   0.0302   4.9994  -0.3673
  25 O_a :2pz   -0.0043  -0.0017  -0.2394  -0.7361   0.3791   0.0774  -0.0337
  26 O_a :2pz    0.0036   0.0009   0.0093   0.0226  -0.0094  -0.0581   0.0207
  27 O_a :2pz    0.0005   0.0024   0.1083   0.1126  -0.0576  -0.5846   0.0426
  28 O_a :2pz   -0.0001   0.0009   0.0165   0.0071  -0.0034  -0.9085   0.7337
  29 O_a :3d0    0.0003   0.0002   0.0095   0.0108  -0.0063  -0.0016  -0.0013
  31 O_a :3d0   -0.0004  -0.0011   0.0175   0.0179  -0.0111   0.0359   0.0073
  33 O_a :3d0    0.0003  -0.0007  -0.0209  -0.0067   0.0134   0.0467   0.0032

    Orbital         8        9       10       11       12       13       14
   1 C_a :1s     0.0369  -0.0301   0.0000   0.0958   0.0461   0.0637  -0.0000
   2 C_a :1s     0.2932  -0.1741  -0.0000   0.4777  -0.1431  -0.2488  -0.0000
   3 C_a :1s     0.0485   0.0079  -0.0000   0.0133   0.1651   0.1237  -0.0000
   4 C_a :1s     2.1371  -5.3374   0.0000   3.9259  -4.9715   7.8491  -0.0000
   5 C_a :1s    -0.1456  -4.9909  -0.0000   1.7877  -3.3435   1.6735  -0.0000
   6 C_a :2pz   -0.0442   0.1522  -0.0000  -0.1191   0.3013   0.0168  -0.0000
   7 C_a :2pz    0.1554  -0.5365  -0.0000   0.2697  -0.3764   1.0132  -0.0000
   8 C_a :2pz   -0.3126  -3.1855   0.0000   1.3288  -6.2395   1.8500  -0.0000
   9 C_a :2pz   -1.0715  -1.8269  -0.0000  -0.5556  -0.6439   0.2467  -0.0000
  10 C_a :3d0    0.0085  -0.0338  -0.0000  -0.0321   0.0292   0.0221  -0.0000
  11 C_a :3d2+  -0.0000  -0.0000   0.0341  -0.0000   0.0000   0.0000  -0.0194
  12 C_a :3d0   -0.0222  -0.3672  -0.0000   0.1397  -0.7675   0.0546  -0.0000
  13 C_a :3d2+  -0.0000   0.0000  -0.0826  -0.0000   0.0000   0.0000   0.0224
  14 C_a :3d0   -0.3972  -1.3292   0.0000  -1.3742  -2.2209   0.3658  -0.0000
  15 C_a :3d2+   0.0000   0.0000   1.1074   0.0000  -0.0000  -0.0000   0.7326
  16 C_a :4f0    0.0051  -0.0190  -0.0000   0.0157  -0.0313   0.0064  -0.0000
  17 C_a :4f2+  -0.0000  -0.0000  -0.0089  -0.0000   0.0000   0.0000  -0.0123
  18 C_a :4f0   -0.0522  -0.1336   0.0000  -0.1106  -0.3664  -0.0052  -0.0000
  19 C_a :4f2+   0.0000   0.0000   0.0664  -0.0000  -0.0000   0.0000   0.1689
  20 O_a :1s     0.0193  -0.0131   0.0000  -0.0030   0.0194   0.0765   0.0000
  21 O_a :1s     0.0380  -0.2821   0.0000   0.0227   0.2794   0.1463   0.0000
  22 O_a :1s    -0.0035  -0.0141   0.0000   0.0103   0.0097  -0.0052   0.0000
  23 O_a :1s    -0.0170   2.3807  -0.0000  -0.1556   5.3776  -2.8475   0.0000
  24 O_a :1s    -1.0796   9.6369   0.0000  -4.9931   5.5745  -6.2046   0.0000
  25 O_a :2pz   -0.0704  -0.0330  -0.0000   0.2287  -0.0260   0.0553  -0.0000
  26 O_a :2pz   -0.0018  -0.1199   0.0000  -0.0324  -0.3455   0.1231  -0.0000
  27 O_a :2pz    0.3872  -1.3386  -0.0000   1.2938  -0.4511   2.0316   0.0000
  28 O_a :2pz    2.6312  -0.5848  -0.0000   2.3093   0.4469   1.9243  -0.0000
  29 O_a :3d0    0.0010  -0.0060   0.0000   0.0009   0.0071  -0.0198   0.0000
  30 O_a :3d2+  -0.0000   0.0000   0.0012  -0.0000   0.0000   0.0000  -0.0404
  31 O_a :3d0    0.0220   0.0912   0.0000  -0.0344   0.0636  -0.0879   0.0000
  32 O_a :3d2+   0.0000   0.0000   0.0366   0.0000  -0.0000  -0.0000   0.1009
  33 O_a :3d0   -0.3231   0.0319   0.0000  -0.2619  -0.4663  -1.3211  -0.0000
  34 O_a :3d2+  -0.0000  -0.0000  -0.1316  -0.0000   0.0000   0.0000  -1.4243
  35 O_a :4f0   -0.0028  -0.0067   0.0000   0.0039  -0.0115   0.0008  -0.0000
  36 O_a :4f2+  -0.0000  -0.0000  -0.0040   0.0000  -0.0000  -0.0000  -0.0116
  37 O_a :4f0    0.0272  -0.0076  -0.0000   0.0074   0.0709   0.1152   0.0000
  38 O_a :4f2+  -0.0000   0.0000   0.0060  -0.0000   0.0000   0.0000   0.0824

    Orbital        15
   1 C_a :1s    -0.0157
   2 C_a :1s     0.0531
   4 C_a :1s     5.2248
   5 C_a :1s     1.9395
   6 C_a :2pz    0.7291
   7 C_a :2pz    0.9629
   8 C_a :2pz    2.2508
   9 C_a :2pz    0.9244
  10 C_a :3d0    0.0376
  12 C_a :3d0   -0.0642
  14 C_a :3d0    0.9891
  16 C_a :4f0    0.0140
  18 C_a :4f0    0.0395
  21 O_a :1s    -0.3602
  22 O_a :1s     0.0222
  23 O_a :1s    -3.0350
  24 O_a :1s    -4.9045
  25 O_a :2pz    0.1999
  26 O_a :2pz    0.1426
  27 O_a :2pz    1.9642
  28 O_a :2pz   -0.1457
  29 O_a :3d0    0.0389
  31 O_a :3d0   -0.1846
  33 O_a :3d0    0.5184
  35 O_a :4f0    0.0144
  37 O_a :4f0    0.0320

 Molecular orbitals for symmetry species 2  (B1 )
 ------------------------------------------------

    Orbital         1        2        3        4        5        6        7
   1 C_a :2px   -0.4429  -0.1625  -0.6456  -0.2013  -0.1814   0.7519   0.3140
   2 C_a :2px    0.0250  -0.0155  -0.0665   0.1578  -0.3339  -0.3920   0.6589
   3 C_a :2px    0.0845  -0.0370  -0.9607   1.0878  -1.9450  -3.9744   0.4921
   4 C_a :2px    0.0017  -1.4644   0.3351   1.7534  -1.0662  -0.0270   0.6106
   5 C_a :3d1+  -0.0278   0.0061   0.0126   0.0085  -0.0102   0.0273  -0.0228
   6 C_a :3d1+  -0.0385   0.0534  -0.1384   0.2128  -0.3008  -0.9475  -0.0157
   7 C_a :3d1+   0.0013  -0.1317  -0.0054   0.8335  -2.3150  -1.0629   0.3571
   8 C_a :4f1+  -0.0086   0.0080  -0.0059   0.0016   0.0118  -0.0450  -0.0269
  10 C_a :4f1+  -0.0049   0.0038  -0.0377   0.1223  -0.2830  -0.3600  -0.0049
  12 O_a :2px   -0.7937   0.2274   0.3300   0.3161   0.2890  -0.0423  -0.3349
  13 O_a :2px   -0.0053  -0.0018   0.0211  -0.0201  -0.0515   0.0614  -0.1423
  14 O_a :2px    0.0122   0.0196   0.4301  -0.4969   1.7961   2.3097   0.1915
  15 O_a :2px   -0.0160   0.7257   0.6624  -2.9596   2.1037   1.5702  -1.2576
  16 O_a :3d1+   0.0114  -0.0002   0.0095   0.0002   0.0110  -0.0004   0.0340
  17 O_a :3d1+   0.0307   0.0138  -0.0039   0.0004  -0.0588  -0.1754  -0.1115
  18 O_a :3d1+   0.0104  -0.0005  -0.1764   0.4393  -0.4751  -1.3527   1.4753
  19 O_a :4f1+  -0.0060  -0.0001  -0.0051   0.0067  -0.0039  -0.0100   0.0160
  21 O_a :4f1+  -0.0035  -0.0045   0.0310  -0.0488   0.0562   0.1983  -0.0870

    Orbital         8        9       10       11
   1 C_a :2px   -0.0000   0.0950  -0.3277   0.5987
   2 C_a :2px    0.0000   1.1708  -1.4832   0.5800
   3 C_a :2px    0.0000   3.1859  -2.2601   2.6054
   4 C_a :2px    0.0000   0.3788   0.1356   0.0900
   5 C_a :3d1+   0.0000  -0.0097  -0.0501   0.0070
   6 C_a :3d1+  -0.0000   0.8200  -2.0527   2.1393
   7 C_a :3d1+   0.0000   1.8897  -0.2915   0.9226
   8 C_a :4f1+   0.0000   0.0057  -0.2122  -0.0230
   9 C_a :4f3+   0.1318  -0.0000   0.0000   0.0000
  10 C_a :4f1+  -0.0000   1.0153   0.4017   1.5748
  11 C_a :4f3+  -1.0706   0.0000   0.0000  -0.0000
  12 O_a :2px    0.0000   0.5352  -0.1318  -0.3375
  13 O_a :2px   -0.0000   0.2295  -0.1052  -0.5300
  14 O_a :2px   -0.0000  -4.7616   3.4574  -3.2483
  15 O_a :2px   -0.0000  -1.2223   0.4278  -0.8497
  16 O_a :3d1+  -0.0000  -0.0225   0.0268  -0.0437
  17 O_a :3d1+   0.0000   0.2398  -0.2140   0.1097
  18 O_a :3d1+   0.0000   1.5897  -2.2962   1.2959
  19 O_a :4f1+   0.0000   0.0149  -0.0131   0.0303
  21 O_a :4f1+   0.0000  -0.1792   0.3974  -0.2096
  22 O_a :4f3+   0.0101   0.0000  -0.0000   0.0000

 Molecular orbitals for symmetry species 3  (B2 )
 ------------------------------------------------

    Orbital         1        2        3        4        5        6        7
   1 C_a :2py   -0.4429  -0.1625  -0.6456  -0.2013  -0.1814   0.7519   0.3140
   2 C_a :2py    0.0250  -0.0155  -0.0665   0.1578  -0.3339  -0.3920   0.6589
   3 C_a :2py    0.0845  -0.0370  -0.9607   1.0878  -1.9450  -3.9744   0.4921
   4 C_a :2py    0.0017  -1.4644   0.3351   1.7534  -1.0662  -0.0270   0.6106
   5 C_a :3d1-  -0.0278   0.0061   0.0126   0.0085  -0.0102   0.0273  -0.0228
   6 C_a :3d1-  -0.0385   0.0534  -0.1384   0.2128  -0.3008  -0.9475  -0.0157
   7 C_a :3d1-   0.0013  -0.1317  -0.0054   0.8335  -2.3150  -1.0629   0.3571
   9 C_a :4f1-  -0.0086   0.0080  -0.0059   0.0016   0.0118  -0.0450  -0.0269
  11 C_a :4f1-  -0.0049   0.0038  -0.0377   0.1223  -0.2830  -0.3600  -0.0049
  12 O_a :2py   -0.7937   0.2274   0.3300   0.3161   0.2890  -0.0423  -0.3349
  13 O_a :2py   -0.0053  -0.0018   0.0211  -0.0201  -0.0515   0.0614  -0.1423
  14 O_a :2py    0.0122   0.0196   0.4301  -0.4969   1.7961   2.3097   0.1915
  15 O_a :2py   -0.0160   0.7257   0.6624  -2.9596   2.1037   1.5702  -1.2576
  16 O_a :3d1-   0.0114  -0.0002   0.0095   0.0002   0.0110  -0.0004   0.0340
  17 O_a :3d1-   0.0307   0.0138  -0.0039   0.0004  -0.0588  -0.1754  -0.1115
  18 O_a :3d1-   0.0104  -0.0005  -0.1764   0.4393  -0.4751  -1.3527   1.4753
  20 O_a :4f1-  -0.0060  -0.0001  -0.0051   0.0067  -0.0039  -0.0100   0.0160
  22 O_a :4f1-  -0.0035  -0.0045   0.0310  -0.0488   0.0562   0.1983  -0.0870

    Orbital         8        9       10       11
   1 C_a :2py    0.0000   0.0950  -0.3277   0.5987
   2 C_a :2py   -0.0000   1.1708  -1.4832   0.5800
   3 C_a :2py   -0.0000   3.1859  -2.2601   2.6054
   4 C_a :2py   -0.0000   0.3788   0.1356   0.0900
   5 C_a :3d1-  -0.0000  -0.0097  -0.0501   0.0070
   6 C_a :3d1-   0.0000   0.8200  -2.0527   2.1393
   7 C_a :3d1-  -0.0000   1.8897  -0.2915   0.9226
   8 C_a :4f3-   0.1318   0.0000  -0.0000  -0.0000
   9 C_a :4f1-  -0.0000   0.0057  -0.2122  -0.0230
  10 C_a :4f3-  -1.0706  -0.0000  -0.0000   0.0000
  11 C_a :4f1-   0.0000   1.0153   0.4017   1.5748
  12 O_a :2py   -0.0000   0.5352  -0.1318  -0.3375
  13 O_a :2py    0.0000   0.2295  -0.1052  -0.5300
  14 O_a :2py    0.0000  -4.7616   3.4574  -3.2483
  15 O_a :2py    0.0000  -1.2223   0.4278  -0.8497
  16 O_a :3d1-   0.0000  -0.0225   0.0268  -0.0437
  17 O_a :3d1-  -0.0000   0.2398  -0.2140   0.1097
  18 O_a :3d1-  -0.0000   1.5897  -2.2962   1.2959
  20 O_a :4f1-  -0.0000   0.0149  -0.0131   0.0303
  21 O_a :4f3-   0.0101  -0.0000   0.0000  -0.0000
  22 O_a :4f1-  -0.0000  -0.1792   0.3974  -0.2096

 Molecular orbitals for symmetry species 4  (A2 )
 ------------------------------------------------

    Orbital         1        2        3        4        5        6        7
   1 C_a :3d2-   0.0341  -0.0194   0.0182   0.0124   0.0390   0.0932   1.1995
   2 C_a :3d2-  -0.0826   0.0224  -1.1874  -0.7685  -0.0936  -1.3523  -0.7752
   3 C_a :3d2-   1.1074   0.7326   0.4845  -0.3867   0.2701  -0.1324   0.2480
   4 C_a :4f2-  -0.0089  -0.0123  -0.0533   0.1021   0.1302  -0.0093  -0.2194
   5 C_a :4f2-   0.0664   0.1689   0.2895  -1.5932  -0.1460  -1.0245   0.0790
   6 O_a :3d2-   0.0012  -0.0404   0.0022  -0.0104   0.0037  -0.0020  -0.0052
   7 O_a :3d2-   0.0366   0.1009  -0.0622  -0.0261   1.2313   0.3288   0.0108
   8 O_a :3d2-  -0.1316  -1.4243   0.2517   1.4617  -0.7582   1.1087   0.0463
   9 O_a :4f2-  -0.0040  -0.0116   0.0008   0.0376  -0.0383   0.1308  -0.0464
  10 O_a :4f2-   0.0060   0.0824  -0.0077  -0.2030   0.2541  -1.5941   0.0866

    Orbital         8        9       10
   1 C_a :3d2-   0.2398  -0.1058   0.0276
   2 C_a :3d2-   0.2769   0.5041   0.1391
   3 C_a :3d2-  -0.1027   0.1025  -0.1109
   4 C_a :4f2-   1.3363  -0.2009   0.1085
   5 C_a :4f2-  -0.3851   0.4637   0.0668
   6 O_a :3d2-  -0.0006   0.0306   1.2185
   7 O_a :3d2-  -0.5399  -0.0274  -0.9198
   8 O_a :3d2-   0.1482  -0.5115   0.2954
   9 O_a :4f2-  -0.0749  -1.2732   0.0170
  10 O_a :4f2-   0.6343   0.8607   0.1076

  Total CPU  time used in SIRIUS :   0.49 seconds
  Total wall time used in SIRIUS :   0.50 seconds

 
     Date and time (Linux)  : Wed Jan 11 14:14:52 2023
     Host name              : cn023                                   


                     .---------------------------------------.
                     | End of Wave Function Section (SIRIUS) |
                     `---------------------------------------'



                 .------------------------------------------------.
                 | Starting in Dynamic Property Section (RESPONS) |
                 `------------------------------------------------'


 ----------------------------------------------------------------------------------------
  RESPONSE  -  an MCSCF, MC-srDFT, DFT, SOPPA and SOPPA-srDFT response property program
 ----------------------------------------------------------------------------------------


 -------- OUTPUT FROM RESPONSE INPUT PROCESSING --------




 Linear Response calculation
 ---------------------------

 Print level                                    : IPRLR  =   2
 Maximum number of iterations                   : MAXITL =  60
 Threshold for relative convergence             : THCLR  = 1.000D-03
 Maximum iterations in optimal orbital algorithm: MAXITO =   5

  9 B-frequencies  0.000000D+00  2.015931D-02  4.031862D-02  6.047794D-02  8.063725D-02
  1.007966D-01  1.209559D-01  1.411152D-01  1.612745D-01

    1 second order properties calculated with symmetry no.    1 and labels:

          ZDIPLEN 

    1 second order properties calculated with symmetry no.    2 and labels:

          XDIPLEN 

    1 second order properties calculated with symmetry no.    3 and labels:

          YDIPLEN 


   SCF energy         :     -112.781447258212580
 -- inactive part     :     -135.295518552771682
 -- nuclear repulsion :       22.514071294559098


                     ***************************************
                     *** RHF response calculation (TDHF) ***
                     ***************************************

 ----------------------------------------------------------------
 ----- Linear response calculation
 ----- Symmetry of excitation/property operator(s)    1  ( A1 )
 ----------------------------------------------------------------

 Number of excitations of this symmetry            0
 Number of response properties of this symmetry    1
 Number of C6/C8 properties of this symmetry       0


 Perturbation symmetry.     KSYMOP:           1
 Perturbation spin symmetry.TRPLET:           F
 Orbital variables.         KZWOPT:         207
 Configuration variables.   KZCONF:           0
 Total number of variables. KZVAR :         207


 RSPLR -- linear response calculation for symmetry 1  ( A1 )
 RSPLR -- operator label : ZDIPLEN 
 RSPLR -- operator spin  :   0
 RSPLR -- frequencies    :     0.000000  0.020159  0.040319  0.060478  0.080637
                               0.100797  0.120956  0.141115  0.161274



 ---  SOLVING SETS OF LINEAR EQUATIONS FOR LINEAR RESPONSE PROPERTIES ---

 Operator symmetry = 1  ( A1 ); triplet =   F


 ** RSPCTL MICROITERATION NUMBER    1

       No.  Residual tot.,    conf., and orb.    Bnorm      Frequency 
      ----------------------------------------------------------------
         1    2.90179D+00  0.00D+00  2.90D+00  2.62D+00    0.00000D+00
         2    2.90454D+00  0.00D+00  2.90D+00  2.63D+00    2.01593D-02
         3    2.91281D+00  0.00D+00  2.91D+00  2.64D+00    4.03186D-02
         4    2.92672D+00  0.00D+00  2.93D+00  2.67D+00    6.04779D-02
         5    2.94647D+00  0.00D+00  2.95D+00  2.71D+00    8.06372D-02
         6    2.97234D+00  0.00D+00  2.97D+00  2.77D+00    1.00797D-01
         7    3.00471D+00  0.00D+00  3.00D+00  2.83D+00    1.20956D-01
         8    3.04409D+00  0.00D+00  3.04D+00  2.91D+00    1.41115D-01
         9    3.09112D+00  0.00D+00  3.09D+00  3.01D+00    1.61274D-01

 ** RSPCTL MICROITERATION NUMBER    2

       No.  Residual tot.,    conf., and orb.    Bnorm      Frequency 
      ----------------------------------------------------------------
         1    5.57744D-01  0.00D+00  5.58D-01  3.14D+00    0.00000D+00
         2    5.58658D-01  0.00D+00  5.59D-01  3.15D+00    2.01593D-02
         3    5.61419D-01  0.00D+00  5.61D-01  3.17D+00    4.03186D-02
         4    5.66079D-01  0.00D+00  5.66D-01  3.20D+00    6.04779D-02
         5    5.72732D-01  0.00D+00  5.73D-01  3.26D+00    8.06372D-02
         6    5.81513D-01  0.00D+00  5.82D-01  3.32D+00    1.00797D-01
         7    5.92609D-01  0.00D+00  5.93D-01  3.41D+00    1.20956D-01
         8    6.06271D-01  0.00D+00  6.06D-01  3.51D+00    1.41115D-01
         9    6.22823D-01  0.00D+00  6.23D-01  3.64D+00    1.61274D-01

 ** RSPCTL MICROITERATION NUMBER    3

       No.  Residual tot.,    conf., and orb.    Bnorm      Frequency 
      ----------------------------------------------------------------
         1    5.64609D-02  0.00D+00  5.65D-02  3.16D+00    0.00000D+00
         2    5.65984D-02  0.00D+00  5.66D-02  3.17D+00    2.01593D-02
         3    5.70144D-02  0.00D+00  5.70D-02  3.19D+00    4.03186D-02
         4    5.77198D-02  0.00D+00  5.77D-02  3.23D+00    6.04779D-02
         5    5.87337D-02  0.00D+00  5.87D-02  3.28D+00    8.06372D-02
         6    6.00843D-02  0.00D+00  6.01D-02  3.35D+00    1.00797D-01
         7    6.18109D-02  0.00D+00  6.18D-02  3.44D+00    1.20956D-01
         8    6.39673D-02  0.00D+00  6.40D-02  3.54D+00    1.41115D-01
         9    6.66251D-02  0.00D+00  6.66D-02  3.67D+00    1.61274D-01

 ** RSPCTL MICROITERATION NUMBER    4

       No.  Residual tot.,    conf., and orb.    Bnorm      Frequency 
      ----------------------------------------------------------------
         1    4.06417D-03  0.00D+00  4.06D-03  3.16D+00    0.00000D+00
         2    4.08155D-03  0.00D+00  4.08D-03  3.17D+00    2.01593D-02
         3    4.13438D-03  0.00D+00  4.13D-03  3.19D+00    4.03186D-02
         4    4.22483D-03  0.00D+00  4.22D-03  3.23D+00    6.04779D-02
         5    4.35672D-03  0.00D+00  4.36D-03  3.28D+00    8.06372D-02
         6    4.53581D-03  0.00D+00  4.54D-03  3.35D+00    1.00797D-01
         7    4.77034D-03  0.00D+00  4.77D-03  3.44D+00    1.20956D-01
         8    5.07177D-03  0.00D+00  5.07D-03  3.54D+00    1.41115D-01
         9    5.45596D-03  0.00D+00  5.46D-03  3.67D+00    1.61274D-01

 ** RSPCTL MICROITERATION NUMBER    5

       No.  Residual tot.,    conf., and orb.    Bnorm      Frequency 
      ----------------------------------------------------------------
         1    2.48781D-04  0.00D+00  2.49D-04  3.16D+00    0.00000D+00
         2    2.49799D-04  0.00D+00  2.50D-04  3.17D+00    2.01593D-02
         3    2.52899D-04  0.00D+00  2.53D-04  3.19D+00    4.03186D-02
         4    2.58228D-04  0.00D+00  2.58D-04  3.23D+00    6.04779D-02
         5    2.66044D-04  0.00D+00  2.66D-04  3.28D+00    8.06372D-02
         6    2.76752D-04  0.00D+00  2.77D-04  3.35D+00    1.00797D-01
         7    2.90942D-04  0.00D+00  2.91D-04  3.44D+00    1.20956D-01
         8    3.09469D-04  0.00D+00  3.09D-04  3.54D+00    1.41115D-01
         9    3.33566D-04  0.00D+00  3.34D-04  3.67D+00    1.61274D-01

 *** THE REQUESTED    9 SOLUTION VECTORS CONVERGED

 Convergence of RSP solution vectors, threshold = 1.00D-03
 ---------------------------------------------------------------
 (dimension of paired reduced space:   90)
 RSP solution vector no.    1; norm of residual   7.86D-05
 RSP solution vector no.    2; norm of residual   7.88D-05
 RSP solution vector no.    3; norm of residual   7.92D-05
 RSP solution vector no.    4; norm of residual   8.00D-05
 RSP solution vector no.    5; norm of residual   8.11D-05
 RSP solution vector no.    6; norm of residual   8.26D-05
 RSP solution vector no.    7; norm of residual   8.47D-05
 RSP solution vector no.    8; norm of residual   8.74D-05
 RSP solution vector no.    9; norm of residual   9.09D-05

 *** RSPCTL MICROITERATIONS CONVERGED


           Final output of second order properties from linear response
           ------------------------------------------------------------


@ Spin symmetry of operators: singlet

 Note that minus the linear response function: - << A; B >>(omega) is printed.
 The results are of quadratic accuracy using Sellers formula.

@ FREQUENCY INDEPENDENT SECOND ORDER PROPERTIES

@ -<< ZDIPLEN  ; ZDIPLEN  >> =  1.448969759726E+01

@ FREQUENCY DEPENDENT SECOND ORDER PROPERTIES WITH FREQUENCY :

@    a.u.:  2.0159312D-02
@    cm-1:  4.4244576D+03
@    eV  :  5.4856280D-01
@  kJ/mol:  5.2928267D+01
@    nm  :  2.2601640D+03

@ -<< ZDIPLEN  ; ZDIPLEN  >> =  1.450645740864E+01

@ FREQUENCY DEPENDENT SECOND ORDER PROPERTIES WITH FREQUENCY :

@    a.u.:  4.0318625D-02
@    cm-1:  8.8489153D+03
@    eV  :  1.0971256D+00
@  kJ/mol:  1.0585653D+02
@    nm  :  1.1300820D+03

@ -<< ZDIPLEN  ; ZDIPLEN  >> =  1.455702741908E+01

@ FREQUENCY DEPENDENT SECOND ORDER PROPERTIES WITH FREQUENCY :

@    a.u.:  6.0477937D-02
@    cm-1:  1.3273373D+04
@    eV  :  1.6456884D+00
@  kJ/mol:  1.5878480D+02
@    nm  :  7.5338801D+02

@ -<< ZDIPLEN  ; ZDIPLEN  >> =  1.464229339966E+01

@ FREQUENCY DEPENDENT SECOND ORDER PROPERTIES WITH FREQUENCY :

@    a.u.:  8.0637250D-02
@    cm-1:  1.7697831D+04
@    eV  :  2.1942512D+00
@  kJ/mol:  2.1171307D+02
@    nm  :  5.6504101D+02

@ -<< ZDIPLEN  ; ZDIPLEN  >> =  1.476377980848E+01

@ FREQUENCY DEPENDENT SECOND ORDER PROPERTIES WITH FREQUENCY :

@    a.u.:  1.0079656D-01
@    cm-1:  2.2122288D+04
@    eV  :  2.7428140D+00
@  kJ/mol:  2.6464133D+02
@    nm  :  4.5203281D+02

@ -<< ZDIPLEN  ; ZDIPLEN  >> =  1.492372705558E+01

@ FREQUENCY DEPENDENT SECOND ORDER PROPERTIES WITH FREQUENCY :

@    a.u.:  1.2095587D-01
@    cm-1:  2.6546746D+04
@    eV  :  3.2913768D+00
@  kJ/mol:  3.1756960D+02
@    nm  :  3.7669400D+02

@ -<< ZDIPLEN  ; ZDIPLEN  >> =  1.512521056056E+01

@ FREQUENCY DEPENDENT SECOND ORDER PROPERTIES WITH FREQUENCY :

@    a.u.:  1.4111519D-01
@    cm-1:  3.0971203D+04
@    eV  :  3.8399396D+00
@  kJ/mol:  3.7049787D+02
@    nm  :  3.2288058D+02

@ -<< ZDIPLEN  ; ZDIPLEN  >> =  1.537231476886E+01

@ FREQUENCY DEPENDENT SECOND ORDER PROPERTIES WITH FREQUENCY :

@    a.u.:  1.6127450D-01
@    cm-1:  3.5395661D+04
@    eV  :  4.3885024D+00
@  kJ/mol:  4.2342613D+02
@    nm  :  2.8252050D+02

@ -<< ZDIPLEN  ; ZDIPLEN  >> =  1.567038301074E+01


 Time used in linear response calculation is      0.49 CPU seconds for symmetry 1
 ----------------------------------------------------------------
 ----- Linear response calculation
 ----- Symmetry of excitation/property operator(s)    2  ( B1 )
 ----------------------------------------------------------------

 Number of excitations of this symmetry            0
 Number of response properties of this symmetry    1
 Number of C6/C8 properties of this symmetry       0


 Perturbation symmetry.     KSYMOP:           2
 Perturbation spin symmetry.TRPLET:           F
 Orbital variables.         KZWOPT:         148
 Configuration variables.   KZCONF:           0
 Total number of variables. KZVAR :         148


 RSPLR -- linear response calculation for symmetry 2  ( B1 )
 RSPLR -- operator label : XDIPLEN 
 RSPLR -- operator spin  :   0
 RSPLR -- frequencies    :     0.000000  0.020159  0.040319  0.060478  0.080637
                               0.100797  0.120956  0.141115  0.161274



 ---  SOLVING SETS OF LINEAR EQUATIONS FOR LINEAR RESPONSE PROPERTIES ---

 Operator symmetry = 2  ( B1 ); triplet =   F


 ** RSPCTL MICROITERATION NUMBER    1

       No.  Residual tot.,    conf., and orb.    Bnorm      Frequency 
      ----------------------------------------------------------------
         1    9.09215D-01  0.00D+00  9.09D-01  2.77D+00    0.00000D+00
         2    9.11253D-01  0.00D+00  9.11D-01  2.78D+00    2.01593D-02
         3    9.17461D-01  0.00D+00  9.17D-01  2.81D+00    4.03186D-02
         4    9.28126D-01  0.00D+00  9.28D-01  2.86D+00    6.04779D-02
         5    9.43763D-01  0.00D+00  9.44D-01  2.93D+00    8.06372D-02
         6    9.65172D-01  0.00D+00  9.65D-01  3.02D+00    1.00797D-01
         7    9.93533D-01  0.00D+00  9.94D-01  3.14D+00    1.20956D-01
         8    1.03057D+00  0.00D+00  1.03D+00  3.30D+00    1.41115D-01
         9    1.07880D+00  0.00D+00  1.08D+00  3.50D+00    1.61274D-01

 ** RSPCTL MICROITERATION NUMBER    2

       No.  Residual tot.,    conf., and orb.    Bnorm      Frequency 
      ----------------------------------------------------------------
         1    1.23926D-01  0.00D+00  1.24D-01  2.84D+00    0.00000D+00
         2    1.24360D-01  0.00D+00  1.24D-01  2.85D+00    2.01593D-02
         3    1.25690D-01  0.00D+00  1.26D-01  2.89D+00    4.03186D-02
         4    1.28005D-01  0.00D+00  1.28D-01  2.94D+00    6.04779D-02
         5    1.31465D-01  0.00D+00  1.31D-01  3.02D+00    8.06372D-02
         6    1.36331D-01  0.00D+00  1.36D-01  3.13D+00    1.00797D-01
         7    1.43014D-01  0.00D+00  1.43D-01  3.28D+00    1.20956D-01
         8    1.52157D-01  0.00D+00  1.52D-01  3.47D+00    1.41115D-01
         9    1.64791D-01  0.00D+00  1.65D-01  3.72D+00    1.61274D-01

 ** RSPCTL MICROITERATION NUMBER    3

       No.  Residual tot.,    conf., and orb.    Bnorm      Frequency 
      ----------------------------------------------------------------
         1    1.21172D-02  0.00D+00  1.21D-02  2.85D+00    0.00000D+00
         2    1.21659D-02  0.00D+00  1.22D-02  2.86D+00    2.01593D-02
         3    1.23146D-02  0.00D+00  1.23D-02  2.89D+00    4.03186D-02
         4    1.25714D-02  0.00D+00  1.26D-02  2.94D+00    6.04779D-02
         5    1.29511D-02  0.00D+00  1.30D-02  3.02D+00    8.06372D-02
         6    1.34773D-02  0.00D+00  1.35D-02  3.13D+00    1.00797D-01
         7    1.41866D-02  0.00D+00  1.42D-02  3.28D+00    1.20956D-01
         8    1.51355D-02  0.00D+00  1.51D-02  3.47D+00    1.41115D-01
         9    1.64137D-02  0.00D+00  1.64D-02  3.72D+00    1.61274D-01

 ** RSPCTL MICROITERATION NUMBER    4

       No.  Residual tot.,    conf., and orb.    Bnorm      Frequency 
      ----------------------------------------------------------------
         1    9.40978D-04  0.00D+00  9.41D-04  2.85D+00    0.00000D+00
         2    9.46689D-04  0.00D+00  9.47D-04  2.86D+00    2.01593D-02
         3    9.64118D-04  0.00D+00  9.64D-04  2.89D+00    4.03186D-02
         4    9.94190D-04  0.00D+00  9.94D-04  2.94D+00    6.04779D-02
         5    1.03857D-03  0.00D+00  1.04D-03  3.02D+00    8.06372D-02
         6    1.09992D-03  0.00D+00  1.10D-03  3.13D+00    1.00797D-01
         7    1.18227D-03  0.00D+00  1.18D-03  3.28D+00    1.20956D-01
         8    1.29182D-03  0.00D+00  1.29D-03  3.47D+00    1.41115D-01
         9    1.43825D-03  0.00D+00  1.44D-03  3.72D+00    1.61274D-01

 *** THE REQUESTED    9 SOLUTION VECTORS CONVERGED

 Convergence of RSP solution vectors, threshold = 1.00D-03
 ---------------------------------------------------------------
 (dimension of paired reduced space:   72)
 RSP solution vector no.    1; norm of residual   3.31D-04
 RSP solution vector no.    2; norm of residual   3.31D-04
 RSP solution vector no.    3; norm of residual   3.34D-04
 RSP solution vector no.    4; norm of residual   3.38D-04
 RSP solution vector no.    5; norm of residual   3.44D-04
 RSP solution vector no.    6; norm of residual   3.51D-04
 RSP solution vector no.    7; norm of residual   3.61D-04
 RSP solution vector no.    8; norm of residual   3.72D-04
 RSP solution vector no.    9; norm of residual   3.87D-04

 *** RSPCTL MICROITERATIONS CONVERGED


           Final output of second order properties from linear response
           ------------------------------------------------------------


@ Spin symmetry of operators: singlet

 Note that minus the linear response function: - << A; B >>(omega) is printed.
 The results are of quadratic accuracy using Sellers formula.

@ FREQUENCY INDEPENDENT SECOND ORDER PROPERTIES

@ -<< XDIPLEN  ; XDIPLEN  >> =  1.122490852487E+01

@ FREQUENCY DEPENDENT SECOND ORDER PROPERTIES WITH FREQUENCY :

@    a.u.:  2.0159312D-02
@    cm-1:  4.4244576D+03
@    eV  :  5.4856280D-01
@  kJ/mol:  5.2928267D+01
@    nm  :  2.2601640D+03

@ -<< XDIPLEN  ; XDIPLEN  >> =  1.124181121203E+01

@ FREQUENCY DEPENDENT SECOND ORDER PROPERTIES WITH FREQUENCY :

@    a.u.:  4.0318625D-02
@    cm-1:  8.8489153D+03
@    eV  :  1.0971256D+00
@  kJ/mol:  1.0585653D+02
@    nm  :  1.1300820D+03

@ -<< XDIPLEN  ; XDIPLEN  >> =  1.129307688026E+01

@ FREQUENCY DEPENDENT SECOND ORDER PROPERTIES WITH FREQUENCY :

@    a.u.:  6.0477937D-02
@    cm-1:  1.3273373D+04
@    eV  :  1.6456884D+00
@  kJ/mol:  1.5878480D+02
@    nm  :  7.5338801D+02

@ -<< XDIPLEN  ; XDIPLEN  >> =  1.138043797035E+01

@ FREQUENCY DEPENDENT SECOND ORDER PROPERTIES WITH FREQUENCY :

@    a.u.:  8.0637250D-02
@    cm-1:  1.7697831D+04
@    eV  :  2.1942512D+00
@  kJ/mol:  2.1171307D+02
@    nm  :  5.6504101D+02

@ -<< XDIPLEN  ; XDIPLEN  >> =  1.150699392330E+01

@ FREQUENCY DEPENDENT SECOND ORDER PROPERTIES WITH FREQUENCY :

@    a.u.:  1.0079656D-01
@    cm-1:  2.2122288D+04
@    eV  :  2.7428140D+00
@  kJ/mol:  2.6464133D+02
@    nm  :  4.5203281D+02

@ -<< XDIPLEN  ; XDIPLEN  >> =  1.167758090625E+01

@ FREQUENCY DEPENDENT SECOND ORDER PROPERTIES WITH FREQUENCY :

@    a.u.:  1.2095587D-01
@    cm-1:  2.6546746D+04
@    eV  :  3.2913768D+00
@  kJ/mol:  3.1756960D+02
@    nm  :  3.7669400D+02

@ -<< XDIPLEN  ; XDIPLEN  >> =  1.189941416171E+01

@ FREQUENCY DEPENDENT SECOND ORDER PROPERTIES WITH FREQUENCY :

@    a.u.:  1.4111519D-01
@    cm-1:  3.0971203D+04
@    eV  :  3.8399396D+00
@  kJ/mol:  3.7049787D+02
@    nm  :  3.2288058D+02

@ -<< XDIPLEN  ; XDIPLEN  >> =  1.218319146460E+01

@ FREQUENCY DEPENDENT SECOND ORDER PROPERTIES WITH FREQUENCY :

@    a.u.:  1.6127450D-01
@    cm-1:  3.5395661D+04
@    eV  :  4.3885024D+00
@  kJ/mol:  4.2342613D+02
@    nm  :  2.8252050D+02

@ -<< XDIPLEN  ; XDIPLEN  >> =  1.254503986754E+01


 Time used in linear response calculation is      0.38 CPU seconds for symmetry 2
 ----------------------------------------------------------------
 ----- Linear response calculation
 ----- Symmetry of excitation/property operator(s)    3  ( B2 )
 ----------------------------------------------------------------

 Number of excitations of this symmetry            0
 Number of response properties of this symmetry    1
 Number of C6/C8 properties of this symmetry       0


 Perturbation symmetry.     KSYMOP:           3
 Perturbation spin symmetry.TRPLET:           F
 Orbital variables.         KZWOPT:         148
 Configuration variables.   KZCONF:           0
 Total number of variables. KZVAR :         148


 RSPLR -- linear response calculation for symmetry 3  ( B2 )
 RSPLR -- operator label : YDIPLEN 
 RSPLR -- operator spin  :   0
 RSPLR -- frequencies    :     0.000000  0.020159  0.040319  0.060478  0.080637
                               0.100797  0.120956  0.141115  0.161274



 ---  SOLVING SETS OF LINEAR EQUATIONS FOR LINEAR RESPONSE PROPERTIES ---

 Operator symmetry = 3  ( B2 ); triplet =   F

RSPORT:    1 out of    9 new trial vectors linear dependent

 ** RSPCTL MICROITERATION NUMBER    1

       No.  Residual tot.,    conf., and orb.    Bnorm      Frequency 
      ----------------------------------------------------------------
         1    9.05055D-01  0.00D+00  9.05D-01  2.77D+00    0.00000D+00
         2    9.07068D-01  0.00D+00  9.07D-01  2.78D+00    2.01593D-02
         3    9.13200D-01  0.00D+00  9.13D-01  2.81D+00    4.03186D-02
         4    9.23737D-01  0.00D+00  9.24D-01  2.86D+00    6.04779D-02
         5    9.39187D-01  0.00D+00  9.39D-01  2.92D+00    8.06372D-02
         6    9.60342D-01  0.00D+00  9.60D-01  3.02D+00    1.00797D-01
         7    9.88375D-01  0.00D+00  9.88D-01  3.14D+00    1.20956D-01
         8    1.02499D+00  0.00D+00  1.02D+00  3.29D+00    1.41115D-01
         9    1.07270D+00  0.00D+00  1.07D+00  3.49D+00    1.61274D-01

 ** RSPCTL MICROITERATION NUMBER    2

       No.  Residual tot.,    conf., and orb.    Bnorm      Frequency 
      ----------------------------------------------------------------
         1    1.32260D-01  0.00D+00  1.32D-01  2.84D+00    0.00000D+00
         2    1.32771D-01  0.00D+00  1.33D-01  2.85D+00    2.01593D-02
         3    1.34335D-01  0.00D+00  1.34D-01  2.89D+00    4.03186D-02
         4    1.37045D-01  0.00D+00  1.37D-01  2.94D+00    6.04779D-02
         5    1.41072D-01  0.00D+00  1.41D-01  3.02D+00    8.06372D-02
         6    1.46689D-01  0.00D+00  1.47D-01  3.13D+00    1.00797D-01
         7    1.54323D-01  0.00D+00  1.54D-01  3.28D+00    1.20956D-01
         8    1.64632D-01  0.00D+00  1.65D-01  3.47D+00    1.41115D-01
         9    1.78658D-01  0.00D+00  1.79D-01  3.72D+00    1.61274D-01

 ** RSPCTL MICROITERATION NUMBER    3

       No.  Residual tot.,    conf., and orb.    Bnorm      Frequency 
      ----------------------------------------------------------------
         1    1.15436D-02  0.00D+00  1.15D-02  2.85D+00    0.00000D+00
         2    1.15879D-02  0.00D+00  1.16D-02  2.86D+00    2.01593D-02
         3    1.17234D-02  0.00D+00  1.17D-02  2.89D+00    4.03186D-02
         4    1.19582D-02  0.00D+00  1.20D-02  2.94D+00    6.04779D-02
         5    1.23071D-02  0.00D+00  1.23D-02  3.02D+00    8.06372D-02
         6    1.27943D-02  0.00D+00  1.28D-02  3.13D+00    1.00797D-01
         7    1.34569D-02  0.00D+00  1.35D-02  3.28D+00    1.20956D-01
         8    1.43532D-02  0.00D+00  1.44D-02  3.47D+00    1.41115D-01
         9    1.55758D-02  0.00D+00  1.56D-02  3.72D+00    1.61274D-01

 ** RSPCTL MICROITERATION NUMBER    4

       No.  Residual tot.,    conf., and orb.    Bnorm      Frequency 
      ----------------------------------------------------------------
         1    9.26745D-04  0.00D+00  9.27D-04  2.85D+00    0.00000D+00
         2    9.30628D-04  0.00D+00  9.31D-04  2.86D+00    2.01593D-02
         3    9.42541D-04  0.00D+00  9.43D-04  2.89D+00    4.03186D-02
         4    9.63320D-04  0.00D+00  9.63D-04  2.94D+00    6.04779D-02
         5    9.94506D-04  0.00D+00  9.95D-04  3.02D+00    8.06372D-02
         6    1.03861D-03  0.00D+00  1.04D-03  3.13D+00    1.00797D-01
         7    1.09961D-03  0.00D+00  1.10D-03  3.28D+00    1.20956D-01
         8    1.18377D-03  0.00D+00  1.18D-03  3.47D+00    1.41115D-01
         9    1.30130D-03  0.00D+00  1.30D-03  3.72D+00    1.61274D-01

 *** THE REQUESTED    9 SOLUTION VECTORS CONVERGED

 Convergence of RSP solution vectors, threshold = 1.00D-03
 ---------------------------------------------------------------
 (dimension of paired reduced space:   70)
 RSP solution vector no.    1; norm of residual   3.26D-04
 RSP solution vector no.    2; norm of residual   3.26D-04
 RSP solution vector no.    3; norm of residual   3.26D-04
 RSP solution vector no.    4; norm of residual   3.27D-04
 RSP solution vector no.    5; norm of residual   3.29D-04
 RSP solution vector no.    6; norm of residual   3.31D-04
 RSP solution vector no.    7; norm of residual   3.35D-04
 RSP solution vector no.    8; norm of residual   3.41D-04
 RSP solution vector no.    9; norm of residual   3.50D-04

 *** RSPCTL MICROITERATIONS CONVERGED


           Final output of second order properties from linear response
           ------------------------------------------------------------


@ Spin symmetry of operators: singlet

 Note that minus the linear response function: - << A; B >>(omega) is printed.
 The results are of quadratic accuracy using Sellers formula.

@ FREQUENCY INDEPENDENT SECOND ORDER PROPERTIES

@ -<< YDIPLEN  ; YDIPLEN  >> =  1.122490850888E+01

@ FREQUENCY DEPENDENT SECOND ORDER PROPERTIES WITH FREQUENCY :

@    a.u.:  2.0159312D-02
@    cm-1:  4.4244576D+03
@    eV  :  5.4856280D-01
@  kJ/mol:  5.2928267D+01
@    nm  :  2.2601640D+03

@ -<< YDIPLEN  ; YDIPLEN  >> =  1.124181119637E+01

@ FREQUENCY DEPENDENT SECOND ORDER PROPERTIES WITH FREQUENCY :

@    a.u.:  4.0318625D-02
@    cm-1:  8.8489153D+03
@    eV  :  1.0971256D+00
@  kJ/mol:  1.0585653D+02
@    nm  :  1.1300820D+03

@ -<< YDIPLEN  ; YDIPLEN  >> =  1.129307686565E+01

@ FREQUENCY DEPENDENT SECOND ORDER PROPERTIES WITH FREQUENCY :

@    a.u.:  6.0477937D-02
@    cm-1:  1.3273373D+04
@    eV  :  1.6456884D+00
@  kJ/mol:  1.5878480D+02
@    nm  :  7.5338801D+02

@ -<< YDIPLEN  ; YDIPLEN  >> =  1.138043795762E+01

@ FREQUENCY DEPENDENT SECOND ORDER PROPERTIES WITH FREQUENCY :

@    a.u.:  8.0637250D-02
@    cm-1:  1.7697831D+04
@    eV  :  2.1942512D+00
@  kJ/mol:  2.1171307D+02
@    nm  :  5.6504101D+02

@ -<< YDIPLEN  ; YDIPLEN  >> =  1.150699391354E+01

@ FREQUENCY DEPENDENT SECOND ORDER PROPERTIES WITH FREQUENCY :

@    a.u.:  1.0079656D-01
@    cm-1:  2.2122288D+04
@    eV  :  2.7428140D+00
@  kJ/mol:  2.6464133D+02
@    nm  :  4.5203281D+02

@ -<< YDIPLEN  ; YDIPLEN  >> =  1.167758090094E+01

@ FREQUENCY DEPENDENT SECOND ORDER PROPERTIES WITH FREQUENCY :

@    a.u.:  1.2095587D-01
@    cm-1:  2.6546746D+04
@    eV  :  3.2913768D+00
@  kJ/mol:  3.1756960D+02
@    nm  :  3.7669400D+02

@ -<< YDIPLEN  ; YDIPLEN  >> =  1.189941416298E+01

@ FREQUENCY DEPENDENT SECOND ORDER PROPERTIES WITH FREQUENCY :

@    a.u.:  1.4111519D-01
@    cm-1:  3.0971203D+04
@    eV  :  3.8399396D+00
@  kJ/mol:  3.7049787D+02
@    nm  :  3.2288058D+02

@ -<< YDIPLEN  ; YDIPLEN  >> =  1.218319147565E+01

@ FREQUENCY DEPENDENT SECOND ORDER PROPERTIES WITH FREQUENCY :

@    a.u.:  1.6127450D-01
@    cm-1:  3.5395661D+04
@    eV  :  4.3885024D+00
@  kJ/mol:  4.2342613D+02
@    nm  :  2.8252050D+02

@ -<< YDIPLEN  ; YDIPLEN  >> =  1.254503989338E+01


 Time used in linear response calculation is      0.37 CPU seconds for symmetry 3

  Total CPU  time used in RESPONSE:   1.24 seconds
  Total wall time used in RESPONSE:   1.27 seconds


                   .-------------------------------------------.
                   | End of Dynamic Property Section (RESPONS) |
                   `-------------------------------------------'

  Total CPU  time used in DALTON:   1.85 seconds
  Total wall time used in DALTON:   1.91 seconds

 
     Date and time (Linux)  : Wed Jan 11 14:14:53 2023
     Host name              : cn023                                   
