

     ************************************************************************
     *************** Dalton - An Electronic Structure Program ***************
     ************************************************************************

    This is output from DALTON release Dalton2020.0 (2020)
         ( Web site: http://daltonprogram.org )

   ----------------------------------------------------------------------------

    NOTE:
     
    Dalton is an experimental code for the evaluation of molecular
    properties using (MC)SCF, DFT, CI, and CC wave functions.
    The authors accept no responsibility for the performance of
    the code or for the correctness of the results.
     
    The code (in whole or part) is provided under a licence and
    is not to be reproduced for further distribution without
    the written permission of the authors or their representatives.
     
    See the home page "http://daltonprogram.org" for further information.
     
    If results obtained with this code are published,
    the appropriate citations would be both of:
     
       K. Aidas, C. Angeli, K. L. Bak, V. Bakken, R. Bast,
       L. Boman, O. Christiansen, R. Cimiraglia, S. Coriani,
       P. Dahle, E. K. Dalskov, U. Ekstroem,
       T. Enevoldsen, J. J. Eriksen, P. Ettenhuber, B. Fernandez,
       L. Ferrighi, H. Fliegl, L. Frediani, K. Hald, A. Halkier,
       C. Haettig, H. Heiberg, T. Helgaker, A. C. Hennum,
       H. Hettema, E. Hjertenaes, S. Hoest, I.-M. Hoeyvik,
       M. F. Iozzi, B. Jansik, H. J. Aa. Jensen, D. Jonsson,
       P. Joergensen, J. Kauczor, S. Kirpekar,
       T. Kjaergaard, W. Klopper, S. Knecht, R. Kobayashi, H. Koch,
       J. Kongsted, A. Krapp, K. Kristensen, A. Ligabue,
       O. B. Lutnaes, J. I. Melo, K. V. Mikkelsen, R. H. Myhre,
       C. Neiss, C. B. Nielsen, P. Norman, J. Olsen,
       J. M. H. Olsen, A. Osted, M. J. Packer, F. Pawlowski,
       T. B. Pedersen, P. F. Provasi, S. Reine, Z. Rinkevicius,
       T. A. Ruden, K. Ruud, V. Rybkin, P. Salek, C. C. M. Samson,
       A. Sanchez de Meras, T. Saue, S. P. A. Sauer,
       B. Schimmelpfennig, K. Sneskov, A. H. Steindal,
       K. O. Sylvester-Hvid, P. R. Taylor, A. M. Teale,
       E. I. Tellgren, D. P. Tew, A. J. Thorvaldsen, L. Thoegersen,
       O. Vahtras, M. A. Watson, D. J. D. Wilson, M. Ziolkowski
       and H. Agren,
       "The Dalton quantum chemistry program system",
       WIREs Comput. Mol. Sci. 2014, 4:269–284 (doi: 10.1002/wcms.1172)
     
    and
     
       Dalton, a molecular electronic structure program,
       Release Dalton2020.0 (2020), see http://daltonprogram.org
   ----------------------------------------------------------------------------

    Authors in alphabetical order (Major contribution(s) in parenthesis):

  Kestutis Aidas,           Vilnius University,           Lithuania   (QM/MM)
  Celestino Angeli,         University of Ferrara,        Italy       (NEVPT2)
  Keld L. Bak,              UNI-C,                        Denmark     (AOSOPPA, non-adiabatic coupling, magnetic properties)
  Vebjoern Bakken,          University of Oslo,           Norway      (DALTON; geometry optimizer, symmetry detection)
  Radovan Bast,             UiT The Arctic U. of Norway,  Norway      (DALTON installation and execution frameworks)
  Pablo Baudin,             University of Valencia,       Spain       (Cholesky excitation energies)
  Linus Boman,              NTNU,                         Norway      (Cholesky decomposition and subsystems)
  Bruno N. Cabral Tenorio,  Technical Univ. of Denmark,   Denmark     (Lanczos-based CC methods)
  Ove Christiansen,         Aarhus University,            Denmark     (CC module)
  Renzo Cimiraglia,         University of Ferrara,        Italy       (NEVPT2)
  Sonia Coriani,            Technical Univ. of Denmark,   Denmark     (CC and RESPONS modules)
  Janusz Cukras,            University of Warsaw,         Poland      (MChD in RESPONS)
  Paal Dahle,               University of Oslo,           Norway      (Parallelization)
  Erik K. Dalskov,          UNI-C,                        Denmark     (SOPPA)
  Thomas Enevoldsen,        Univ. of Southern Denmark,    Denmark     (SOPPA)
  Janus J. Eriksen,         Aarhus University,            Denmark     (Polarizable embedding, TDA)
  Rasmus Faber,             Technical Univ. of Denmark,   Denmark     (Vib.avg. NMR w. SOPPA, parallel AO-SOPPA, CVS-CC and EOMCC)
  Tobias Fahleson,          KTH Stockholm,                Sweden      (Damped cubic response)
  Berta Fernandez,          U. of Santiago de Compostela, Spain       (Doublet spin, ESR in RESPONS)
  Lara Ferrighi,            Aarhus University,            Denmark     (PCM Cubic response)
  Heike Fliegl,             University of Oslo,           Norway      (CCSD(R12))
  Luca Frediani,            UiT The Arctic U. of Norway,  Norway      (PCM)
  Emmanuel Fromager,        Univ. Strasbourg,             France      (MC-srDFT)
  Bin Gao,                  UiT The Arctic U. of Norway,  Norway      (Gen1Int library)
  Andre S. P. Gomes,        CNRS/Universite de Lille,     France      (Frozen density embedding)
  Christof Haettig,         Ruhr-University Bochum,       Germany     (CC module)
  Kasper Hald,              Aarhus University,            Denmark     (CC module)
  Asger Halkier,            Aarhus University,            Denmark     (CC module)
  Frederik Beyer Hansen,    University of Copenhagen,     Denmark     (Parallel AO-SOPPA)
  Erik D. Hedegaard,        Univ. of Southern Denmark,    Denmark     (Polarizable embedding, QM/MM, and MC-srDFT)
  Hanne Heiberg,            University of Oslo,           Norway      (Geometry analysis, selected one-electron integrals)
  Trygve Helgaker,          University of Oslo,           Norway      (DALTON; ABACUS, ERI, DFT modules, London, and much more)
  Alf Christian Hennum,     University of Oslo,           Norway      (Parity violation)
  Hinne Hettema,            University of Auckland,       New Zealand (Quadratic response in RESPONS; SIRIUS supersymmetry)
  Eirik Hjertenaes,         NTNU,                         Norway      (Cholesky decomposition)
  Pi A. B. Haase,           University of Copenhagen,     Denmark     (Triplet AO-SOPPA)
  Maria Francesca Iozzi,    University of Oslo,           Norway      (RPA)
  Christoph Jacob           TU Braunschweig               Germany     (Frozen density embedding)
  Brano Jansik              Technical Univ. of Ostrava    Czech Rep.  (DFT cubic response)
  Hans Joergen Aa. Jensen,  Univ. of Southern Denmark,    Denmark     (DALTON; SIRIUS, RESPONS, ABACUS, MC-srDFT, and much more)
  Dan Jonsson,              UiT The Arctic U. of Norway,  Norway      (Cubic response in RESPONS module)
  Poul Joergensen,          Aarhus University,            Denmark     (RESPONS, ABACUS, and CC modules)
  Maciej Kaminski,          University of Warsaw,         Poland      (CPPh in RESPONS)
  Joanna Kauczor,           Linkoeping University,        Sweden      (Complex polarization propagator (CPP) module)
  Sheela Kirpekar,          Univ. of Southern Denmark,    Denmark     (Mass-velocity & Darwin integrals)
  Erik Kjellgren,           Univ. of Southern Denmark,    Denmark     (MC-srDFT)
  Wim Klopper,              KIT Karlsruhe,                Germany     (R12 code in CC, SIRIUS, and ABACUS modules)
  Stefan Knecht,            ETH Zurich,                   Switzerland (Parallel CI and MCSCF, MC-srDFT)
  Rika Kobayashi,           Australian National Univ.,    Australia   (DIIS in CC, London in MCSCF)
  Henrik Koch,              NTNU,                         Norway      (CC module, Cholesky decomposition)
  Jacob Kongsted,           Univ. of Southern Denmark,    Denmark     (Polarizable embedding, polarizable density embedding, QM/MM)
  Andrea Ligabue,           University of Modena,         Italy       (CTOCD, AOSOPPA)
  Nanna H. List             Univ. of Southern Denmark,    Denmark     (Polarizable embedding)
  Ola B. Lutnaes,           University of Oslo,           Norway      (DFT Hessian)
  Juan I. Melo,             University of Buenos Aires,   Argentina   (LRESC, Relativistic Effects on NMR Shieldings)
  Kurt V. Mikkelsen,        University of Copenhagen,     Denmark     (MC-SCRF and QM/MM)
  Rolf H. Myhre,            NTNU,                         Norway      (Subsystems and CC3)
  Christian Neiss,          Univ. Erlangen-Nuernberg,     Germany     (CCSD(R12))
  Christian B. Nielsen,     University of Copenhagen,     Denmark     (QM/MM)
  Patrick Norman,           KTH Stockholm,                Sweden      (Cubic response and complex frequency response in RESPONS)
  Jeppe Olsen,              Aarhus University,            Denmark     (SIRIUS CI/density modules)
  Jogvan Magnus H. Olsen,   Aarhus University,            Denmark     (Polarizable embedding and polarizable density embedding)
  Anders Osted,             Copenhagen University,        Denmark     (QM/MM)
  Martin J. Packer,         University of Sheffield,      UK          (SOPPA)
  Filip Pawlowski,          Kazimierz Wielki University,  Poland      (CC3)
  Morten N. Pedersen,       Univ. of Southern Denmark,    Denmark     (Polarizable embedding)
  Thomas B. Pedersen,       University of Oslo,           Norway      (Cholesky decomposition)
  Patricio F. Provasi,      University of Northeastern,   Argentina   (Analysis of coupling constants in localized orbitals)
  Peter Reinholdt,          Univ. of Southern Denmark,    Denmark     (Polarizable embedding and polarizable density embedding)
  Zilvinas Rinkevicius,     KTH Stockholm,                Sweden      (open-shell DFT, ESR)
  Elias Rudberg,            KTH Stockholm,                Sweden      (DFT grid and basis info)
  Torgeir A. Ruden,         University of Oslo,           Norway      (Numerical derivatives in ABACUS)
  Kenneth Ruud,             UiT The Arctic U. of Norway,  Norway      (DALTON; ABACUS magnetic properties and much more)
  Pawel Salek,              KTH Stockholm,                Sweden      (DALTON; DFT code)
  Claire C. M. Samson       University of Karlsruhe       Germany     (Boys localization, r12 integrals in ERI)
  Alfredo Sanchez de Meras, University of Valencia,       Spain       (CC module, Cholesky decomposition)
  Trond Saue,               Paul Sabatier University,     France      (direct Fock matrix construction)
  Stephan P. A. Sauer,      University of Copenhagen,     Denmark     (SOPPA(CCSD), SOPPA prop., AOSOPPA, vibrational g-factors)
  Bernd Schimmelpfennig,    Forschungszentrum Karlsruhe,  Germany     (AMFI module)
  Anna K. Schnack-Petersen, University of Copenhagen,     Denmark     (RPA(D) and HRPA(D) properties in AOSOPPA)
  Kristian Sneskov,         Aarhus University,            Denmark     (Polarizable embedding, QM/MM)
  Arnfinn H. Steindal,      UiT The Arctic U. of Norway,  Norway      (parallel QM/MM, polarizable embedding)
  Casper Steinmann,         Aalborg University,           Denmark     (QFIT, polarizable embedding)
  K. O. Sylvester-Hvid,     University of Copenhagen,     Denmark     (MC-SCRF)
  Peter R. Taylor,          VLSCI/Univ. of Melbourne,     Australia   (Symmetry handling ABACUS, integral transformation)
  Andrew M. Teale,          University of Nottingham,     England     (DFT-AC, DFT-D)
  David P. Tew,             University of Bristol,        England     (CCSD(R12))
  Julien Toulouse,          Sorbonne Univ.,               France      (MC-srDFT)
  Olav Vahtras,             KTH Stockholm,                Sweden      (Triplet response, spin-orbit, ESR, TDDFT, open-shell DFT)
  Lucas Visscher,           Vrije Universiteit Amsterdam, Netherlands (Frozen density embedding)
  David J. Wilson,          La Trobe University,          Australia   (DFT Hessian and DFT magnetizabilities)
  Hans Agren,               KTH Stockholm,                Sweden      (SIRIUS module, RESPONS, MC-SCRF solvation)
 --------------------------------------------------------------------------------

     Date and time (Linux)  : Wed Jan 11 14:15:14 2023
     Host name              : cn023                                   

 * Work memory size             :    64000000 =  488.28 megabytes.

 * Directories for basis set searches:
   1) /gpfs/projects/rjh/adrian/fd_compare/dalton/hf/CO/dipole
   2) /gpfs/projects/rjh/adrian/dalton/build/basis


Compilation information
-----------------------

 Who compiled             | ahurtado
 Host                     | sn-mem
 System                   | Linux-3.10.0-1160.24.1.el7.x86_64
 CMake generator          | Unix Makefiles
 Processor                | x86_64
 64-bit integers          | OFF
 MPI                      | ON
 Fortran compiler         | /gpfs/software/intel/oneAPI/2021_4/mpi/2021.4.0/bi
                          | n/mpif90
 Fortran compiler version | GNU Fortran (GCC) 11.2.0
 C compiler               | /gpfs/software/intel/oneAPI/2021_4/mpi/2021.4.0/bi
                          | n/mpicc
 C compiler version       | gcc (GCC) 11.2.0
 C++ compiler             | /gpfs/software/intel/oneAPI/2021_4/mpi/2021.4.0/bi
                          | n/mpicxx
 C++ compiler version     | unknown
 BLAS                     | /gpfs/software/intel/oneAPI/2021_4/mkl/2021.4.0/li
                          | b/intel64/libmkl_gf_lp64.so;/gpfs/software/intel/o
                          | neAPI/2021_4/mkl/2021.4.0/lib/intel64/libmkl_seque
                          | ntial.so;/gpfs/software/intel/oneAPI/2021_4/mkl/20
                          | 21.4.0/lib/intel64/libmkl_core.so;/usr/lib64/libpt
                          | hread.so;/usr/lib64/libm.so
 LAPACK                   | /gpfs/software/intel/oneAPI/2021_4/mkl/2021.4.0/li
                          | b/intel64/libmkl_lapack95_lp64.a;/gpfs/software/in
                          | tel/oneAPI/2021_4/mkl/2021.4.0/lib/intel64/libmkl_
                          | gf_lp64.so
 Static linking           | OFF
 Last Git revision        | 66052b3af5ea7225e31178bf9a8b031913c72190
 Git branch               | (HEAD detached at Dalton2020.0)
 Configuration time       | 2023-01-11 13:33:37.731835

 * MPI parallel run using 20 processes.


   Content of the .dal input file
 ----------------------------------

**DALTON INPUT
.RUN RESPONSE
.DIRECT
**WAVE FUNCTIONS
.HF
**RESPONSE
*LINEAR
.DIPLEN
.FREQUENCIES
9
0.0 0.0201593125 0.040318625 0.060477937499999995 0.08063725 0.10079656249999999 0.12095587499999999
**END OF DALTON INPUT


   Content of the .mol file
 ----------------------------

BASIS
aug-cc-pV5Z
blah
blah
Atomtype=2 Atomic
Charge=6 Atoms=1
C_a 0.000000000000 0.000000000000 0.000000000000
Charge=8 Atoms=1
O_a 0.000000000000 0.000000000000 2.132000000000


       *******************************************************************
       *********** Output from DALTON general input processing ***********
       *******************************************************************

 --------------------------------------------------------------------------------
   Overall default print level:    0
   Print level for DALTON.STAT:    1

    Parallel calculation using MPI
    AO-direct calculation (in sections where implemented)
    HERMIT 1- and 2-electron integral sections will be executed
    "Old" integral transformation used (limited to max 255 basis functions)
    Wave function sections will be executed (SIRIUS module)
    Dynamic molecular response properties section will be executed (RESPONSE module)
 --------------------------------------------------------------------------------


   ****************************************************************************
   *************** Output of molecule and basis set information ***************
   ****************************************************************************


    The two title cards from your ".mol" input:
    ------------------------------------------------------------------------
 1: blah                                                                    
 2: blah                                                                    
    ------------------------------------------------------------------------

  Atomic type no.    1
  --------------------
  Nuclear charge:   6.00000
  Number of symmetry independent centers:    1
  Number of basis sets to read;    2
  Basis set file used for this atomic type with Z =   6 :
     "/gpfs/projects/rjh/adrian/dalton/build/basis/aug-cc-pV5Z"

  Atomic type no.    2
  --------------------
  Nuclear charge:   8.00000
  Number of symmetry independent centers:    1
  Number of basis sets to read;    2
  Basis set file used for this atomic type with Z =   8 :
     "/gpfs/projects/rjh/adrian/dalton/build/basis/aug-cc-pV5Z"


                      SYMADD: Requested addition of symmetry
                      --------------------------------------

 Symmetry test threshold:  5.00E-06

@   The molecule is centered at center of mass and rotated
@   so principal axes of inertia are along coordinate axes.

 Symmetry class found: C(oo,v)        

 Symmetry Independent Centres             
 ----------------------------
O_a    8 :      0.00000000     0.00000000     0.91388025  Isotope  1
C_a    6 :      0.00000000     0.00000000    -1.21811975  Isotope  1

 The following symmetry elements were found:   X  Y     


                         SYMGRP: Point group information
                         -------------------------------

@    Full point group is: C(oo,v)        
@    Represented as:      C2v

@  * The irrep name for each symmetry:    1: A1     2: B1     3: B2     4: A2 

   * The point group was generated by:

      Reflection in the yz-plane
      Reflection in the xz-plane

   * Group multiplication table

        |  E   C2z  Oxz  Oyz
   -----+--------------------
     E  |  E   C2z  Oxz  Oyz
    C2z | C2z   E   Oyz  Oxz
    Oxz | Oxz  Oyz   E   C2z
    Oyz | Oyz  Oxz  C2z   E 

   * Character table

        |  E   C2z  Oxz  Oyz
   -----+--------------------
    A1  |   1    1    1    1
    B1  |   1   -1    1   -1
    B2  |   1   -1   -1    1
    A2  |   1    1   -1   -1

   * Direct product table

        | A1   B1   B2   A2 
   -----+--------------------
    A1  | A1   B1   B2   A2 
    B1  | B1   A1   A2   B2 
    B2  | B2   A2   A1   B1 
    A2  | A2   B2   B1   A1 


                                 Isotopic Masses
                                 ---------------

                           C_a        12.000000
                           O_a        15.994915

                       Total mass:    27.994915 amu
                       Natural abundance:  98.663 %

 Center-of-mass coordinates (a.u.):    0.000000    0.000000    0.000000
 Center-of-mass coordinates (Angs):    0.000000    0.000000    0.000000


  Atoms and basis sets
  --------------------

  Number of atom types :    2
  Total number of atoms:    2

  Basis set used is "aug-cc-pV5Z" from the basis set library.

  label    atoms   charge   prim   cont     basis
  ----------------------------------------------------------------------
  C_          1    6.0000   144   127      [15s9p5d4f3g2h|7s6p5d4f3g2h]                       
  O_          1    8.0000   144   127      [15s9p5d4f3g2h|7s6p5d4f3g2h]                       
  ----------------------------------------------------------------------
  total:      2   14.0000   288   254
  ----------------------------------------------------------------------
  Spherical harmonic basis used.

  Threshold for neglecting AO integrals:  1.00D-12


  Cartesian Coordinates (a.u.)
  ----------------------------

  Total number of coordinates:    6
  C_a     :     1  x   0.0000000000    2  y   0.0000000000    3  z  -1.2181197471
  O_a     :     4  x   0.0000000000    5  y   0.0000000000    6  z   0.9138802529


  Symmetry Coordinates
  --------------------

  Number of coordinates in each symmetry:     2    2    2    0

  Symmetry  A1  ( 1)

    1   C_a   z    3
    2   O_a   z    6

  Symmetry  B1  ( 2)

    3   C_a   x    1
    4   O_a   x    4

  Symmetry  B2  ( 3)

    5   C_a   y    2
    6   O_a   y    5


   Interatomic separations (in Angstrom):
   --------------------------------------

            C_a         O_a   
            ------      ------
 C_a   :    0.000000
 O_a   :    1.128206    0.000000


  Max    interatomic separation is    1.1282 Angstrom (    2.1320 Bohr)
  between atoms    2 and    1, "O_a   " and "C_a   ".

  Min YX interatomic separation is    1.1282 Angstrom (    2.1320 Bohr)


  Bond distances (Angstrom):
  --------------------------

                  atom 1     atom 2       distance
                  ------     ------       --------
  bond distance:  O_a        C_a          1.128206




 Principal moments of inertia (u*A**2) and principal axes
 --------------------------------------------------------

   IA       0.000000          0.000000    0.000000    1.000000
   IB       8.726914          0.000000    1.000000    0.000000
   IC       8.726914          1.000000    0.000000    0.000000


 Rotational constants
 --------------------

@    The molecule is linear.

               B =        57910.39 MHz     (    1.931683 cm-1)


@  Nuclear repulsion energy :   22.514071294559 Hartree


  Symmetry Orbitals
  -----------------

  Number of orbitals in each symmetry:          92   62   62   38


  Symmetry  A1 ( 1)

    1     C_a      1s         1
    2     C_a      1s         2
    3     C_a      1s         3
    4     C_a      1s         4
    5     C_a      1s         5
    6     C_a      1s         6
    7     C_a      1s         7
    8     C_a      2pz       10
    9     C_a      2pz       13
   10     C_a      2pz       16
   11     C_a      2pz       19
   12     C_a      2pz       22
   13     C_a      2pz       25
   14     C_a      3d0       28
   15     C_a      3d2+      30
   16     C_a      3d0       33
   17     C_a      3d2+      35
   18     C_a      3d0       38
   19     C_a      3d2+      40
   20     C_a      3d0       43
   21     C_a      3d2+      45
   22     C_a      3d0       48
   23     C_a      3d2+      50
   24     C_a      4f0       54
   25     C_a      4f2+      56
   26     C_a      4f0       61
   27     C_a      4f2+      63
   28     C_a      4f0       68
   29     C_a      4f2+      70
   30     C_a      4f0       75
   31     C_a      4f2+      77
   32     C_a      5g0       83
   33     C_a      5g2+      85
   34     C_a      5g4+      87
   35     C_a      5g0       92
   36     C_a      5g2+      94
   37     C_a      5g4+      96
   38     C_a      5g0      101
   39     C_a      5g2+     103
   40     C_a      5g4+     105
   41     C_a      6h0      111
   42     C_a      6h2+     113
   43     C_a      6h4+     115
   44     C_a      6h0      122
   45     C_a      6h2+     124
   46     C_a      6h4+     126
   47     O_a      1s       128
   48     O_a      1s       129
   49     O_a      1s       130
   50     O_a      1s       131
   51     O_a      1s       132
   52     O_a      1s       133
   53     O_a      1s       134
   54     O_a      2pz      137
   55     O_a      2pz      140
   56     O_a      2pz      143
   57     O_a      2pz      146
   58     O_a      2pz      149
   59     O_a      2pz      152
   60     O_a      3d0      155
   61     O_a      3d2+     157
   62     O_a      3d0      160
   63     O_a      3d2+     162
   64     O_a      3d0      165
   65     O_a      3d2+     167
   66     O_a      3d0      170
   67     O_a      3d2+     172
   68     O_a      3d0      175
   69     O_a      3d2+     177
   70     O_a      4f0      181
   71     O_a      4f2+     183
   72     O_a      4f0      188
   73     O_a      4f2+     190
   74     O_a      4f0      195
   75     O_a      4f2+     197
   76     O_a      4f0      202
   77     O_a      4f2+     204
   78     O_a      5g0      210
   79     O_a      5g2+     212
   80     O_a      5g4+     214
   81     O_a      5g0      219
   82     O_a      5g2+     221
   83     O_a      5g4+     223
   84     O_a      5g0      228
   85     O_a      5g2+     230
   86     O_a      5g4+     232
   87     O_a      6h0      238
   88     O_a      6h2+     240
   89     O_a      6h4+     242
   90     O_a      6h0      249
   91     O_a      6h2+     251
   92     O_a      6h4+     253


  Symmetry  B1 ( 2)

   93     C_a      2px        8
   94     C_a      2px       11
   95     C_a      2px       14
   96     C_a      2px       17
   97     C_a      2px       20
   98     C_a      2px       23
   99     C_a      3d1+      29
  100     C_a      3d1+      34
  101     C_a      3d1+      39
  102     C_a      3d1+      44
  103     C_a      3d1+      49
  104     C_a      4f1+      55
  105     C_a      4f3+      57
  106     C_a      4f1+      62
  107     C_a      4f3+      64
  108     C_a      4f1+      69
  109     C_a      4f3+      71
  110     C_a      4f1+      76
  111     C_a      4f3+      78
  112     C_a      5g1+      84
  113     C_a      5g3+      86
  114     C_a      5g1+      93
  115     C_a      5g3+      95
  116     C_a      5g1+     102
  117     C_a      5g3+     104
  118     C_a      6h1+     112
  119     C_a      6h3+     114
  120     C_a      6h5+     116
  121     C_a      6h1+     123
  122     C_a      6h3+     125
  123     C_a      6h5+     127
  124     O_a      2px      135
  125     O_a      2px      138
  126     O_a      2px      141
  127     O_a      2px      144
  128     O_a      2px      147
  129     O_a      2px      150
  130     O_a      3d1+     156
  131     O_a      3d1+     161
  132     O_a      3d1+     166
  133     O_a      3d1+     171
  134     O_a      3d1+     176
  135     O_a      4f1+     182
  136     O_a      4f3+     184
  137     O_a      4f1+     189
  138     O_a      4f3+     191
  139     O_a      4f1+     196
  140     O_a      4f3+     198
  141     O_a      4f1+     203
  142     O_a      4f3+     205
  143     O_a      5g1+     211
  144     O_a      5g3+     213
  145     O_a      5g1+     220
  146     O_a      5g3+     222
  147     O_a      5g1+     229
  148     O_a      5g3+     231
  149     O_a      6h1+     239
  150     O_a      6h3+     241
  151     O_a      6h5+     243
  152     O_a      6h1+     250
  153     O_a      6h3+     252
  154     O_a      6h5+     254


  Symmetry  B2 ( 3)

  155     C_a      2py        9
  156     C_a      2py       12
  157     C_a      2py       15
  158     C_a      2py       18
  159     C_a      2py       21
  160     C_a      2py       24
  161     C_a      3d1-      27
  162     C_a      3d1-      32
  163     C_a      3d1-      37
  164     C_a      3d1-      42
  165     C_a      3d1-      47
  166     C_a      4f3-      51
  167     C_a      4f1-      53
  168     C_a      4f3-      58
  169     C_a      4f1-      60
  170     C_a      4f3-      65
  171     C_a      4f1-      67
  172     C_a      4f3-      72
  173     C_a      4f1-      74
  174     C_a      5g3-      80
  175     C_a      5g1-      82
  176     C_a      5g3-      89
  177     C_a      5g1-      91
  178     C_a      5g3-      98
  179     C_a      5g1-     100
  180     C_a      6h5-     106
  181     C_a      6h3-     108
  182     C_a      6h1-     110
  183     C_a      6h5-     117
  184     C_a      6h3-     119
  185     C_a      6h1-     121
  186     O_a      2py      136
  187     O_a      2py      139
  188     O_a      2py      142
  189     O_a      2py      145
  190     O_a      2py      148
  191     O_a      2py      151
  192     O_a      3d1-     154
  193     O_a      3d1-     159
  194     O_a      3d1-     164
  195     O_a      3d1-     169
  196     O_a      3d1-     174
  197     O_a      4f3-     178
  198     O_a      4f1-     180
  199     O_a      4f3-     185
  200     O_a      4f1-     187
  201     O_a      4f3-     192
  202     O_a      4f1-     194
  203     O_a      4f3-     199
  204     O_a      4f1-     201
  205     O_a      5g3-     207
  206     O_a      5g1-     209
  207     O_a      5g3-     216
  208     O_a      5g1-     218
  209     O_a      5g3-     225
  210     O_a      5g1-     227
  211     O_a      6h5-     233
  212     O_a      6h3-     235
  213     O_a      6h1-     237
  214     O_a      6h5-     244
  215     O_a      6h3-     246
  216     O_a      6h1-     248


  Symmetry  A2 ( 4)

  217     C_a      3d2-      26
  218     C_a      3d2-      31
  219     C_a      3d2-      36
  220     C_a      3d2-      41
  221     C_a      3d2-      46
  222     C_a      4f2-      52
  223     C_a      4f2-      59
  224     C_a      4f2-      66
  225     C_a      4f2-      73
  226     C_a      5g4-      79
  227     C_a      5g2-      81
  228     C_a      5g4-      88
  229     C_a      5g2-      90
  230     C_a      5g4-      97
  231     C_a      5g2-      99
  232     C_a      6h4-     107
  233     C_a      6h2-     109
  234     C_a      6h4-     118
  235     C_a      6h2-     120
  236     O_a      3d2-     153
  237     O_a      3d2-     158
  238     O_a      3d2-     163
  239     O_a      3d2-     168
  240     O_a      3d2-     173
  241     O_a      4f2-     179
  242     O_a      4f2-     186
  243     O_a      4f2-     193
  244     O_a      4f2-     200
  245     O_a      5g4-     206
  246     O_a      5g2-     208
  247     O_a      5g4-     215
  248     O_a      5g2-     217
  249     O_a      5g4-     224
  250     O_a      5g2-     226
  251     O_a      6h4-     234
  252     O_a      6h2-     236
  253     O_a      6h4-     245
  254     O_a      6h2-     247

  Symmetries of electric field:  B1 (2)  B2 (3)  A1 (1)

  Symmetries of magnetic field:  B2 (3)  B1 (2)  A2 (4)


                     .---------------------------------------.
                     | Starting in Integral Section (HERMIT) |
                     `---------------------------------------'



 ***************************************************************************************
 ****************** Output from **INTEGRALS input processing (HERMIT) ******************
 ***************************************************************************************


 - Using defaults, no **INTEGRALS input found

 Default print level:        1

 Calculation of one-electron Hamiltonian integrals.

 Center of mass  (bohr):      0.000000000000      0.000000000000      0.000000000000
 Operator center (bohr):      0.000000000000      0.000000000000      0.000000000000
 Gauge origin    (bohr):      0.000000000000      0.000000000000      0.000000000000
 Dipole origin   (bohr):      0.000000000000      0.000000000000      0.000000000000


     ************************************************************************
     ************************** Output from HERINT **************************
     ************************************************************************



                      Nuclear contribution to dipole moments
                      --------------------------------------

                 au               Debye          C m (/(10**-30)

      z      0.00232354         0.00590585         0.01969980


  Time used in GABGEN     is       0.84 seconds
  Total CPU  time used in HERMIT:   1.17 seconds
  Total wall time used in HERMIT:   1.17 seconds


                        .----------------------------------.
                        | End of Integral Section (HERMIT) |
                        `----------------------------------'



                   .--------------------------------------------.
                   | Starting in Wave Function Section (SIRIUS) |
                   `--------------------------------------------'


 *** Output from Huckel module :

     Using EWMO model:          T
     Using EHT  model:          F
     Number of Huckel orbitals each symmetry:    6    2    2    0

 EWMO - Energy Weighted Maximum Overlap - is a Huckel type method,
        which normally is better than Extended Huckel Theory.
 Reference: Linderberg and Ohrn, Propagators in Quantum Chemistry (Wiley, 1973)

 Huckel EWMO eigenvalues for symmetry :  1
          -20.685999     -11.349525      -1.578830      -0.796795      -0.456115
           -0.137637

 Huckel EWMO eigenvalues for symmetry :  2
           -0.717188      -0.305912

 Huckel EWMO eigenvalues for symmetry :  3
           -0.717188      -0.305912

 **********************************************************************
 *SIRIUS* a direct, restricted step, second order MCSCF program       *
 **********************************************************************

 
     Date and time (Linux)  : Wed Jan 11 14:15:15 2023
     Host name              : cn023                                   

 Title lines from ".mol" input file:
     blah                                                                    
     blah                                                                    

 Print level on unit LUPRI =   2 is   0
 Print level on unit LUW4  =   2 is   5

@    Restricted, closed shell Hartree-Fock calculation.

@    Time-dependent Hartree-Fock calculation (random phase approximation).
 Fock matrices are calculated directly and in parallel without use of integrals on disk.

 Initial molecular orbitals are obtained according to
 ".MOSTART EWMO  " input option

     Wave function specification
     ============================
@    Wave function type        --- HF ---
@    Number of closed shell electrons          14
@    Number of electrons in active shells       0
@    Total charge of the molecule               0

@    Spin multiplicity and 2 M_S                1         0
@    Total number of symmetries                 4 (point group: C2v)
@    Reference state symmetry                   1 (irrep name : A1 )

     Orbital specifications
     ======================
@    Abelian symmetry species          All |    1    2    3    4
@                                          |  A1   B1   B2   A2 
                                       --- |  ---  ---  ---  ---
@    Total number of orbitals          254 |   92   62   62   38
@    Number of basis functions         254 |   92   62   62   38

      ** Automatic occupation of RHF orbitals **

      -- Initial occupation of symmetries is determined from extended Huckel guess.           
      -- Initial occupation of symmetries is :
@    Occupied SCF orbitals               7 |    5    1    1    0

     Maximum number of Fock   iterations      0
     Maximum number of DIIS   iterations     60
     Maximum number of QC-SCF iterations     60
     Threshold for SCF convergence     1.00D-05


 ***********************************************
 ***** DIIS acceleration of SCF iterations *****
 ***********************************************

 C1-DIIS algorithm; max error vectors =    8

 Automatic occupation of symmetries with  14 electrons.

 Iter     Total energy    Error norm  Delta(E)    SCF occupation
 -----------------------------------------------------------------------------
   1  Screening settings (-IFTHRS, JTDIIS, DIFDEN, times)   -8    1    T  2.13D+00  2.13D+00
@  1  -112.502387461       2.59D+00  -1.13D+02     5   1   1   0
      Virial theorem: -V/T =      2.005860
@    MULPOP   C_a    -0.01; O_a     0.01; 
   1  Level shift: doubly occupied orbital energies shifted by -2.00D-01
 -----------------------------------------------------------------------------
   2  Screening settings (-IFTHRS, JTDIIS, DIFDEN, times)   -8    2    T  2.38D+00  2.38D+00
@  2  -112.776357692       5.39D-01  -2.74D-01     5   1   1   0
      Virial theorem: -V/T =      1.998274
@    MULPOP   C_a     0.41; O_a    -0.41; 
   2  Level shift: doubly occupied orbital energies shifted by -5.00D-02
 -----------------------------------------------------------------------------
   3  Screening settings (-IFTHRS, JTDIIS, DIFDEN, times)   -8    3    T  2.35D+00  2.35D+00
@  3  -112.789258326       1.27D-01  -1.29D-02     5   1   1   0
      Virial theorem: -V/T =      2.000895
@    MULPOP   C_a     0.45; O_a    -0.45; 
   3  Level shift: doubly occupied orbital energies shifted by -1.25D-02
 -----------------------------------------------------------------------------
   4  Screening settings (-IFTHRS, JTDIIS, DIFDEN, times)  -12    4    F  2.37D+00  2.37D+00
@  4  -112.790479290       5.84D-02  -1.22D-03     5   1   1   0
      Virial theorem: -V/T =      2.001768
@    MULPOP   C_a     0.42; O_a    -0.42; 
 -----------------------------------------------------------------------------
   5  Screening settings (-IFTHRS, JTDIIS, DIFDEN, times)  -12    5    T  2.37D+00  2.38D+00
@  5  -112.790648042       2.12D-02  -1.69D-04     5   1   1   0
      Virial theorem: -V/T =      2.001146
@    MULPOP   C_a     0.44; O_a    -0.44; 
 -----------------------------------------------------------------------------
   6  Screening settings (-IFTHRS, JTDIIS, DIFDEN, times)  -12    6    T  2.37D+00  2.38D+00
@  6  -112.790672880       3.09D-03  -2.48D-05     5   1   1   0
      Virial theorem: -V/T =      2.001323
@    MULPOP   C_a     0.44; O_a    -0.44; 
 -----------------------------------------------------------------------------
   7  Screening settings (-IFTHRS, JTDIIS, DIFDEN, times)  -12    7    T  2.35D+00  2.35D+00
@  7  -112.790673724       5.16D-04  -8.44D-07     5   1   1   0
      Virial theorem: -V/T =      2.001330
@    MULPOP   C_a     0.44; O_a    -0.44; 
 -----------------------------------------------------------------------------
   8  Screening settings (-IFTHRS, JTDIIS, DIFDEN, times)  -12    8    T  2.37D+00  2.37D+00
@  8  -112.790673751       1.15D-04  -2.74D-08     5   1   1   0
      Virial theorem: -V/T =      2.001332
@    MULPOP   C_a     0.44; O_a    -0.44; 
 -----------------------------------------------------------------------------
   9  Screening settings (-IFTHRS, JTDIIS, DIFDEN, times)  -12    9    T  2.37D+00  2.37D+00
@  9  -112.790673753       1.21D-05  -1.33D-09     5   1   1   0
      Virial theorem: -V/T =      2.001332
@    MULPOP   C_a     0.44; O_a    -0.44; 
 -----------------------------------------------------------------------------
  10  Screening settings (-IFTHRS, JTDIIS, DIFDEN, times)  -12   10    T  2.34D+00  2.34D+00
@ 10  -112.790673753       2.75D-06  -2.21D-11     5   1   1   0

@ *** DIIS converged in  10 iterations !
@     Converged SCF energy, gradient:   -112.790673752671    2.75D-06
    - total time used in SIRFCK :              0.00 seconds


 *** SCF orbital energy analysis ***

 Only the 20 lowest virtual orbital energies printed in each symmetry.

 Number of electrons :   14
 Orbital occupations :    5    1    1    0

 Sym       Hartree-Fock orbital energies

1 A1    -20.66457707   -11.36007858    -1.52152196    -0.80453491    -0.55491508
          0.05017877     0.06104106     0.12913269     0.19677972     0.20387006
          0.25474369     0.27966440     0.44305850     0.46197535     0.52027521
          0.60491272     0.63080180     0.65036740     0.68965094     0.70624361
          1.05243144     1.13747037     1.17305306     1.20877314     1.27265848

2 B1     -0.64036514     0.05353013     0.12333968     0.14237135     0.26957219
          0.30180257     0.50873848     0.55064529     0.61030267     0.64499621
          0.84612909     1.06968980     1.18605570     1.23793833     1.45934952
          1.62189782     1.70866657     1.76497351     1.80318822     2.27516122
          2.53287188

3 B2     -0.64036514     0.05353013     0.12333968     0.14237135     0.26957219
          0.30180257     0.50873848     0.55064529     0.61030267     0.64499621
          0.84612909     1.06968980     1.18605570     1.23793833     1.45934952
          1.62189782     1.70866657     1.76497351     1.80318822     2.27516122
          2.53287188

4 A2      0.20387006     0.46197535     0.60491272     0.70624361     1.17305306
          1.37148450     1.55482568     1.65568961     1.74489862     2.26188284
          2.71432473     3.03976025     3.16265162     3.58367435     3.74704428
          4.02881548     4.05358616     4.49561063     4.73235148     5.81701944

    E(LUMO) :     0.05017877 au (symmetry 1)
  - E(HOMO) :    -0.55491508 au (symmetry 1)
  ------------------------------------------
    gap     :     0.60509385 au

 --- Writing SIRIFC interface file

 CPU and wall time for SCF :      23.518      23.544


                       .-----------------------------------.
                       | --- Final results from SIRIUS --- |
                       `-----------------------------------'


@    Spin multiplicity:           1
@    Spatial symmetry:            1 ( irrep  A1  in C2v )
@    Total charge of molecule:    0

@    Final HF energy:            -112.790673752671                 
@    Nuclear repulsion:            22.514071294559
@    Electronic energy:          -135.304745047231

@    Final gradient norm:           0.000002753960

 
     Date and time (Linux)  : Wed Jan 11 14:15:39 2023
     Host name              : cn023                                   

File label for MO orbitals:  11Jan23   FOCKDIIS

 (Only coefficients > 0.0100 are printed.)

 Molecular orbitals for symmetry species 1  (A1 )
 ------------------------------------------------

    Orbital         1        2        3        4        5        6        7
   1 C_a :1s     0.0002   1.0003  -0.0092  -0.0010   0.0019   0.0162  -0.0027
   2 C_a :1s     0.0009   0.0031   0.4557   0.5742   0.6107   0.1510   0.0778
   3 C_a :1s     0.0002   0.0006   0.0064   0.0035  -0.0027   0.0368  -0.0094
   4 C_a :1s    -0.0006  -0.0040  -0.0461  -0.0260   0.0097   0.1699   0.0153
   5 C_a :1s    -0.0033   0.0008  -0.1796  -0.0866   0.0661  -3.0517   0.7089
   6 C_a :1s    -0.0015   0.0021  -0.1058  -0.0623   0.1104 -10.7047   0.2422
   7 C_a :1s    -0.0001   0.0003  -0.0020   0.0036   0.0152  -6.7024  -0.4163
   8 C_a :2pz    0.0005   0.0147   0.3469   0.2022  -0.7121  -0.0941  -0.0649
   9 C_a :2pz   -0.0000  -0.0046  -0.0122  -0.0056   0.0060   0.0643   0.0038
  10 C_a :2pz   -0.0015  -0.0040  -0.0620  -0.0319   0.0377  -0.8509   0.1206
  11 C_a :2pz   -0.0015  -0.0021  -0.0865  -0.0443   0.0767  -3.4801   0.0534
  12 C_a :2pz   -0.0003  -0.0011  -0.0419  -0.0208   0.0618  -4.4561  -0.6114
  13 C_a :2pz   -0.0000   0.0000   0.0001   0.0004   0.0001  -0.6872   1.6940
  16 C_a :3d0   -0.0001   0.0006   0.0113   0.0063  -0.0116  -0.0069  -0.0030
  18 C_a :3d0   -0.0004   0.0013   0.0241   0.0169  -0.0219  -0.4266   0.0261
  20 C_a :3d0   -0.0004   0.0012   0.0190   0.0137  -0.0080  -1.1801  -0.2946
  22 C_a :3d0   -0.0000   0.0002   0.0023   0.0033   0.0016  -0.7736   0.0904
  26 C_a :4f0   -0.0000   0.0004   0.0050   0.0037  -0.0025  -0.0590   0.0039
  28 C_a :4f0   -0.0000   0.0002   0.0089   0.0072  -0.0008  -0.1754  -0.0858
  30 C_a :4f0   -0.0001   0.0001   0.0028   0.0016   0.0009  -0.1838  -0.0658
  35 C_a :5g0    0.0001   0.0001   0.0019   0.0015  -0.0009  -0.0251  -0.0108
  38 C_a :5g0    0.0000  -0.0001   0.0015   0.0014   0.0002  -0.0166  -0.0357
  44 C_a :6h0    0.0000  -0.0001   0.0003   0.0001   0.0002  -0.0024  -0.0102
  47 O_a :1s     1.0004  -0.0003  -0.0049  -0.0033  -0.0002   0.0006  -0.0040
  48 O_a :1s     0.0020   0.0016   0.8343  -0.4703  -0.0643   0.0659  -0.0560
  50 O_a :1s    -0.0014  -0.0006  -0.0168  -0.0040  -0.0005  -0.1057   0.0447
  51 O_a :1s     0.0011  -0.0025  -0.0581  -0.0637   0.0145   0.9524   0.2004
  52 O_a :1s     0.0024  -0.0032  -0.0219  -0.1061   0.0435   7.6708  -0.2031
  53 O_a :1s     0.0005  -0.0008   0.0183  -0.0172   0.0134  12.4422  -0.5318
  54 O_a :2pz   -0.0082  -0.0015  -0.2401  -0.7398   0.3765   0.0510   0.0050
  55 O_a :2pz    0.0023   0.0001   0.0035   0.0034  -0.0006   0.0195   0.0018
  56 O_a :2pz    0.0024   0.0007   0.0025   0.0132  -0.0045  -0.1481  -0.0316
  57 O_a :2pz    0.0011  -0.0001  -0.0047   0.0296  -0.0156  -1.5936   0.2241
  58 O_a :2pz    0.0006  -0.0002  -0.0059   0.0265  -0.0205  -2.9446   0.6411
  59 O_a :2pz    0.0000  -0.0000  -0.0027  -0.0006   0.0000  -1.4228  -0.6355
  64 O_a :3d0    0.0004   0.0004   0.0211   0.0188  -0.0112   0.1062   0.0016
  66 O_a :3d0    0.0005   0.0014   0.0332   0.0244  -0.0097   0.3681  -0.1120
  68 O_a :3d0    0.0000   0.0004   0.0113   0.0088   0.0015   0.2761  -0.1820
  74 O_a :4f0   -0.0001  -0.0008  -0.0114  -0.0079   0.0053  -0.0491  -0.0036
  76 O_a :4f0    0.0000  -0.0004  -0.0050  -0.0032   0.0006  -0.0016   0.0146
  84 O_a :5g0   -0.0000   0.0003   0.0023   0.0016  -0.0013  -0.0032   0.0102

    Orbital         8        9       10       11       12       13       14
   1 C_a :1s     0.0082  -0.0313  -0.0000  -0.0201  -0.0173  -0.0354  -0.0000
   2 C_a :1s    -0.0693  -0.0460  -0.0000   0.0235  -0.3112  -0.3640  -0.0000
   3 C_a :1s     0.0439  -0.0723   0.0000  -0.0907  -0.0857  -0.0965  -0.0000
   4 C_a :1s    -0.5516  -0.4762  -0.0000   0.4118   1.2450   0.7894  -0.0000
   5 C_a :1s    -2.6776   6.4848   0.0000   6.7623   5.5795   6.3071   0.0000
   6 C_a :1s    -1.5551  22.8422   0.0000  12.6134  -7.9960  12.8580   0.0000
   7 C_a :1s     1.8090   9.3223   0.0000   2.4270  -5.6699   2.3570   0.0000
   8 C_a :2pz    0.0567  -0.0940   0.0000  -0.1265   0.0705  -0.0330  -0.0000
   9 C_a :2pz   -0.0873  -0.1470  -0.0000   0.0086   0.2245   0.1001  -0.0000
  10 C_a :2pz   -0.4129   1.7291  -0.0000   1.7206   0.8220   1.1085   0.0000
  11 C_a :2pz    1.3578   7.6380   0.0000   2.4859  -5.4329   1.3204   0.0000
  12 C_a :2pz    3.5333   8.5830  -0.0000   1.5526 -11.6514   1.3460   0.0000
  13 C_a :2pz    1.6738   1.5748  -0.0000  -1.1860  -0.4728  -0.0942  -0.0000
  14 C_a :3d0    0.0004  -0.0026   0.0000  -0.0106  -0.0015  -0.0021  -0.0000
  16 C_a :3d0   -0.0306   0.0033   0.0000   0.0590   0.0776   0.0278  -0.0000
  17 C_a :3d2+  -0.0000  -0.0000   0.0093   0.0000  -0.0000   0.0000   0.0241
  18 C_a :3d0    0.1108   0.9430   0.0000   0.4300  -0.3562   0.0264   0.0000
  19 C_a :3d2+   0.0000   0.0000   0.0040  -0.0000   0.0000  -0.0000  -0.2003
  20 C_a :3d0    1.3380   2.4060   0.0000   0.1960  -4.3802  -0.7273   0.0000
  21 C_a :3d2+   0.0000   0.0000   0.1526  -0.0000   0.0000  -0.0000  -1.5004
  22 C_a :3d0    1.6580   2.1621   0.0000  -2.1507  -4.1516   0.2428   0.0000
  23 C_a :3d2+   0.0000   0.0000  -1.3518  -0.0000   0.0000  -0.0000  -1.1809
  24 C_a :4f0   -0.0059  -0.0041   0.0000   0.0020   0.0084   0.0111  -0.0000
  26 C_a :4f0    0.0316   0.1289   0.0000   0.0677  -0.0531  -0.0561  -0.0000
  27 C_a :4f2+   0.0000   0.0000   0.0197  -0.0000   0.0000  -0.0000   0.0047
  28 C_a :4f0    0.2479   0.3125   0.0000   0.0516  -0.8166  -0.2515   0.0000
  29 C_a :4f2+   0.0000   0.0000   0.1293  -0.0000   0.0000  -0.0000  -0.5511
  30 C_a :4f0    0.4407   0.4213  -0.0000  -0.4010  -1.3093   0.0090   0.0000
  31 C_a :4f2+   0.0000   0.0000  -0.2370  -0.0000   0.0000  -0.0000  -0.8466
  32 C_a :5g0    0.0006   0.0104   0.0000   0.0030  -0.0015   0.0033  -0.0000
  35 C_a :5g0    0.0320   0.0410   0.0000   0.0397  -0.0755  -0.0823   0.0000
  36 C_a :5g2+   0.0000   0.0000   0.0477  -0.0000   0.0000  -0.0000  -0.0244
  38 C_a :5g0    0.0801   0.0054   0.0000  -0.0430  -0.2597  -0.0357  -0.0000
  39 C_a :5g2+   0.0000   0.0000   0.0193  -0.0000   0.0000  -0.0000  -0.2891
  44 C_a :6h0    0.0160  -0.0073   0.0000   0.0117  -0.0395  -0.0310  -0.0000
  45 C_a :6h2+   0.0000   0.0000   0.0254  -0.0000   0.0000  -0.0000  -0.0440
  47 O_a :1s     0.0063   0.0008   0.0000  -0.0039  -0.0206  -0.0104   0.0000
  48 O_a :1s     0.0378   0.1793  -0.0000  -0.0214   0.0277  -0.1426   0.0000
  49 O_a :1s     0.0172  -0.0113  -0.0000  -0.0152  -0.0542  -0.0307   0.0000
  50 O_a :1s    -0.0597   0.2588  -0.0000   0.1672   0.1825   0.1636   0.0000
  51 O_a :1s    -1.2172  -1.8656  -0.0000  -0.2847   3.2922   1.4528  -0.0000
  52 O_a :1s    -1.3118 -16.2520  -0.0000  -7.0521   8.9238  -7.5201  -0.0000
  53 O_a :1s     0.1822 -23.8373  -0.0000 -11.3331   6.7404 -11.5129  -0.0000
  54 O_a :2pz    0.0439   0.0787  -0.0000   0.1332  -0.0204   0.0652  -0.0000
  55 O_a :2pz   -0.0185  -0.0377  -0.0000  -0.0247   0.0307   0.0367  -0.0000
  56 O_a :2pz    0.2319   0.2955   0.0000   0.0652  -0.5184  -0.4127   0.0000
  57 O_a :2pz   -0.5838   3.3862   0.0000   2.4814   0.5997   2.3818   0.0000
  58 O_a :2pz   -3.3884   6.2569   0.0000   7.2499   6.6291   7.0081   0.0000
  59 O_a :2pz   -3.8220   1.0005  -0.0000   3.3420   2.3518   2.3618   0.0000
  62 O_a :3d0   -0.0089   0.0158   0.0000   0.0135   0.0009   0.0231  -0.0000
  63 O_a :3d2+   0.0000   0.0000   0.0001   0.0000   0.0000  -0.0000  -0.0125
  64 O_a :3d0   -0.0305  -0.2133  -0.0000  -0.1205   0.1212  -0.0495  -0.0000
  65 O_a :3d2+  -0.0000  -0.0000  -0.0173   0.0000  -0.0000   0.0000   0.0749
  66 O_a :3d0    0.5857  -0.7122   0.0000  -1.2134  -1.4303  -1.1390  -0.0000
  67 O_a :3d2+  -0.0000  -0.0000  -0.1992   0.0000  -0.0000   0.0000   0.5427
  68 O_a :3d0    1.6682  -0.5049  -0.0000  -1.6465  -3.2064  -3.5439  -0.0000
  69 O_a :3d2+  -0.0000  -0.0000   0.4754   0.0000  -0.0000   0.0000   2.9639
  72 O_a :4f0    0.0069   0.0234   0.0000   0.0032  -0.0143  -0.0059   0.0000
  73 O_a :4f2+  -0.0000  -0.0000  -0.0063   0.0000  -0.0000   0.0000   0.0119
  74 O_a :4f0   -0.0897   0.0613   0.0000   0.2268   0.1964   0.1506  -0.0000
  75 O_a :4f2+   0.0000   0.0000   0.0969  -0.0000   0.0000  -0.0000  -0.1444
  76 O_a :4f0   -0.3052  -0.0436  -0.0000   0.2783   0.6038   0.6342   0.0000
  77 O_a :4f2+   0.0000   0.0000  -0.0370  -0.0000   0.0000  -0.0000  -0.8058
  81 O_a :5g0    0.0060  -0.0068  -0.0000  -0.0214  -0.0242  -0.0005  -0.0000
  82 O_a :5g2+  -0.0000  -0.0000  -0.0106  -0.0000  -0.0000   0.0000  -0.0188
  84 O_a :5g0    0.0407   0.0300  -0.0000  -0.0551  -0.0577  -0.0743   0.0000
  85 O_a :5g2+  -0.0000  -0.0000  -0.0226   0.0000  -0.0000   0.0000   0.1485
  90 O_a :6h0   -0.0069  -0.0066   0.0000   0.0095   0.0170   0.0048   0.0000

    Orbital        15
   1 C_a :1s     0.0677
   2 C_a :1s     0.3707
   3 C_a :1s     0.1317
   4 C_a :1s     1.4581
   5 C_a :1s   -13.2299
   6 C_a :1s   -41.8959
   7 C_a :1s    -8.9567
   8 C_a :2pz   -0.3174
   9 C_a :2pz    0.3741
  10 C_a :2pz   -3.6521
  11 C_a :2pz  -17.3375
  12 C_a :2pz  -12.8350
  13 C_a :2pz   -1.1772
  16 C_a :3d0    0.0258
  18 C_a :3d0   -2.1243
  20 C_a :3d0   -5.1172
  22 C_a :3d0   -2.5452
  24 C_a :4f0    0.0156
  26 C_a :4f0   -0.3162
  28 C_a :4f0   -0.6609
  30 C_a :4f0   -0.6704
  32 C_a :5g0   -0.0232
  35 C_a :5g0   -0.1187
  38 C_a :5g0    0.0593
  41 C_a :6h0   -0.0219
  44 C_a :6h0    0.0221
  48 O_a :1s     0.2958
  49 O_a :1s     0.0197
  50 O_a :1s    -0.5453
  51 O_a :1s     4.5373
  52 O_a :1s    35.1772
  53 O_a :1s    29.7468
  54 O_a :2pz    0.0415
  55 O_a :2pz    0.0974
  56 O_a :2pz   -0.7999
  57 O_a :2pz   -7.1103
  58 O_a :2pz  -11.8850
  59 O_a :2pz   -0.7747
  62 O_a :3d0   -0.0244
  64 O_a :3d0    0.4668
  66 O_a :3d0    1.3347
  68 O_a :3d0   -0.1930
  72 O_a :4f0   -0.0594
  74 O_a :4f0   -0.0743
  76 O_a :4f0    0.3868
  81 O_a :5g0    0.0185
  84 O_a :5g0   -0.1190
  90 O_a :6h0    0.0175

 Molecular orbitals for symmetry species 2  (B1 )
 ------------------------------------------------

    Orbital         1        2        3        4        5        6        7
   1 C_a :2px   -0.4458  -0.0785   0.4129   0.4349  -0.0645  -0.5632  -0.1944
   2 C_a :2px    0.0036  -0.0177  -0.0363  -0.0157  -0.0425  -0.1003  -0.0355
   3 C_a :2px    0.0236   0.1079   0.3831  -0.0619   0.9160   0.7488  -0.2027
   4 C_a :2px    0.0540   0.2088   2.1769  -1.1143   5.9582   2.6839  -2.8058
   5 C_a :2px    0.0440   0.2211   3.6293  -1.5874   8.1985   3.9984  -0.9897
   6 C_a :2px   -0.0001  -1.6624   0.8934  -1.9912   1.2087  -0.7069  -0.8177
   8 C_a :3d1+  -0.0145   0.0045  -0.0042  -0.0016  -0.0149   0.0062   0.0139
   9 C_a :3d1+  -0.0282   0.0816   0.3472  -0.1464   1.0127   0.5588  -0.2427
  10 C_a :3d1+  -0.0222   0.2672   1.3309  -0.5367   3.5247   2.1771  -0.1870
  11 C_a :3d1+  -0.0004  -0.1412   1.1493  -1.2681   4.4328   0.1404  -0.2414
  14 C_a :4f1+  -0.0048   0.0108   0.0494  -0.0230   0.1409   0.0798  -0.0565
  16 C_a :4f1+  -0.0083   0.0816   0.2908  -0.0781   0.7658   0.5323   0.0564
  18 C_a :4f1+  -0.0029   0.0345   0.3277  -0.2148   1.1152   0.3213   0.4149
  20 C_a :5g1+  -0.0009   0.0010   0.0035  -0.0012   0.0109   0.0049   0.0025
  22 C_a :5g1+  -0.0017   0.0082   0.0289  -0.0059   0.0626   0.0584  -0.0411
  24 C_a :5g1+  -0.0023   0.0210   0.0817  -0.0243   0.2223   0.1285   0.1345
  29 C_a :6h1+  -0.0004   0.0033   0.0110  -0.0019   0.0156   0.0220   0.0077
  32 O_a :2px   -0.8005   0.1480  -0.1857  -0.3933  -0.1511   0.2026   0.2808
  33 O_a :2px    0.0037   0.0027  -0.0034   0.0080   0.0146  -0.0017   0.0465
  34 O_a :2px   -0.0004  -0.0063   0.0214  -0.0285   0.0140   0.0163  -0.1300
  35 O_a :2px    0.0029  -0.2302  -1.1635   0.3695  -2.8776  -1.8468   0.5281
  36 O_a :2px    0.0064  -0.3145  -3.3307   1.6023  -9.9295  -3.9419   1.1135
  37 O_a :2px   -0.0026   0.8007  -3.2338   3.2055  -4.5421  -0.6710   1.9132
  39 O_a :3d1+   0.0062  -0.0020  -0.0127   0.0011  -0.0157  -0.0126   0.0117
  40 O_a :3d1+   0.0235   0.0147   0.0470  -0.0202   0.1148   0.1259  -0.0781
  41 O_a :3d1+   0.0255   0.1417   0.6355  -0.2241   1.8886   1.0558  -0.1875
  42 O_a :3d1+   0.0066   0.0878   1.3283  -0.8115   3.0403   1.9139  -2.9441
  45 O_a :4f1+  -0.0040  -0.0002  -0.0013   0.0015   0.0019  -0.0080   0.0132
  47 O_a :4f1+  -0.0095  -0.0293  -0.1212   0.0358  -0.3706  -0.2046   0.0394
  49 O_a :4f1+  -0.0037  -0.0206  -0.2390   0.1323  -0.5348  -0.3600   0.6177
  53 O_a :5g1+   0.0024   0.0030   0.0099  -0.0015   0.0329   0.0184   0.0060
  55 O_a :5g1+   0.0026   0.0063   0.0437  -0.0189   0.1073   0.0682  -0.0816
  60 O_a :6h1+  -0.0008  -0.0014  -0.0068   0.0020  -0.0167  -0.0117   0.0051

    Orbital         8        9       10       11
   1 C_a :2px   -0.0000  -0.3107   0.0661  -0.7790
   2 C_a :2px    0.0000   0.1048  -0.1044   0.2316
   3 C_a :2px    0.0000  -2.1884   1.7468  -0.7567
   4 C_a :2px    0.0000 -13.6943   2.2207  -4.0294
   5 C_a :2px    0.0000 -10.3510  -1.3843  -3.9307
   6 C_a :2px   -0.0000  -0.4037  -0.5092   0.3656
   8 C_a :3d1+  -0.0000   0.0280   0.0565  -0.0006
   9 C_a :3d1+   0.0000  -2.3729   1.0763  -0.6253
  10 C_a :3d1+  -0.0000  -7.3331  -0.2458  -5.5880
  11 C_a :3d1+   0.0000  -4.0802  -1.7038  -0.7204
  12 C_a :4f1+  -0.0000   0.0167  -0.0070  -0.0001
  13 C_a :4f3+  -0.0189   0.0000  -0.0000   0.0000
  14 C_a :4f1+  -0.0000  -0.3460   0.1895  -0.0435
  15 C_a :4f3+   0.0866  -0.0000   0.0000  -0.0000
  16 C_a :4f1+   0.0000  -1.7091   0.1114  -1.3179
  17 C_a :4f3+  -0.2898   0.0000  -0.0000   0.0000
  18 C_a :4f1+  -0.0000  -1.6651  -2.4735  -1.6547
  19 C_a :4f3+   1.2098  -0.0000   0.0000  -0.0000
  20 C_a :5g1+  -0.0000  -0.0217   0.0027  -0.0061
  22 C_a :5g1+  -0.0000  -0.1889   0.1272  -0.0956
  23 C_a :5g3+  -0.0278  -0.0000  -0.0000   0.0000
  24 C_a :5g1+   0.0000  -0.3596  -0.4604  -0.5770
  25 C_a :5g3+   0.0465   0.0000  -0.0000   0.0000
  26 C_a :6h1+  -0.0000  -0.0243   0.0261   0.0012
  29 C_a :6h1+  -0.0000  -0.0229  -0.0678  -0.1064
  32 O_a :2px    0.0000  -0.2395   0.0061   0.2993
  33 O_a :2px   -0.0000  -0.0337   0.0306   0.0187
  34 O_a :2px   -0.0000  -0.0285   0.0141   0.0223
  35 O_a :2px   -0.0000   6.1873  -0.2861   4.5170
  36 O_a :2px    0.0000  18.8430  -0.1317   6.1571
  37 O_a :2px   -0.0000   3.1866   1.0499   0.4952
  39 O_a :3d1+   0.0000   0.0444  -0.0164   0.0446
  40 O_a :3d1+   0.0000  -0.2764   0.0837  -0.2177
  41 O_a :3d1+   0.0000  -4.2209   1.4560  -1.3361
  42 O_a :3d1+  -0.0000  -6.9343   2.4956  -1.3711
  45 O_a :4f1+  -0.0000   0.0001   0.0012   0.0204
  47 O_a :4f1+  -0.0000   0.8405  -0.4464   0.1554
  48 O_a :4f3+   0.0459  -0.0000   0.0000  -0.0000
  49 O_a :4f1+   0.0000   1.3837  -1.1790  -0.0912
  50 O_a :4f3+  -0.1326  -0.0000   0.0000  -0.0000
  53 O_a :5g1+   0.0000  -0.0702   0.0225  -0.0281
  55 O_a :5g1+   0.0000  -0.2615   0.2530   0.0435
  56 O_a :5g3+  -0.0118   0.0000  -0.0000   0.0000
  60 O_a :6h1+  -0.0000   0.0354  -0.0284   0.0021

 Molecular orbitals for symmetry species 3  (B2 )
 ------------------------------------------------

    Orbital         1        2        3        4        5        6        7
   1 C_a :2py   -0.4458  -0.0785   0.4129   0.4349  -0.0645  -0.5632  -0.1944
   2 C_a :2py    0.0036  -0.0177  -0.0363  -0.0157  -0.0425  -0.1003  -0.0355
   3 C_a :2py    0.0236   0.1079   0.3831  -0.0619   0.9160   0.7488  -0.2027
   4 C_a :2py    0.0540   0.2088   2.1769  -1.1143   5.9582   2.6839  -2.8058
   5 C_a :2py    0.0440   0.2211   3.6293  -1.5874   8.1985   3.9984  -0.9897
   6 C_a :2py   -0.0001  -1.6624   0.8934  -1.9912   1.2087  -0.7069  -0.8177
   8 C_a :3d1-  -0.0145   0.0045  -0.0042  -0.0016  -0.0149   0.0062   0.0139
   9 C_a :3d1-  -0.0282   0.0816   0.3472  -0.1464   1.0127   0.5588  -0.2427
  10 C_a :3d1-  -0.0222   0.2672   1.3309  -0.5367   3.5247   2.1771  -0.1870
  11 C_a :3d1-  -0.0004  -0.1412   1.1493  -1.2681   4.4328   0.1404  -0.2414
  15 C_a :4f1-  -0.0048   0.0108   0.0494  -0.0230   0.1409   0.0798  -0.0565
  17 C_a :4f1-  -0.0083   0.0816   0.2908  -0.0781   0.7658   0.5323   0.0564
  19 C_a :4f1-  -0.0029   0.0345   0.3277  -0.2148   1.1152   0.3213   0.4149
  21 C_a :5g1-  -0.0009   0.0010   0.0035  -0.0012   0.0109   0.0049   0.0025
  23 C_a :5g1-  -0.0017   0.0082   0.0289  -0.0059   0.0626   0.0584  -0.0411
  25 C_a :5g1-  -0.0023   0.0210   0.0817  -0.0243   0.2223   0.1285   0.1345
  31 C_a :6h1-  -0.0004   0.0033   0.0110  -0.0019   0.0156   0.0220   0.0077
  32 O_a :2py   -0.8005   0.1480  -0.1857  -0.3933  -0.1511   0.2026   0.2808
  33 O_a :2py    0.0037   0.0027  -0.0034   0.0080   0.0146  -0.0017   0.0465
  34 O_a :2py   -0.0004  -0.0063   0.0214  -0.0285   0.0140   0.0163  -0.1300
  35 O_a :2py    0.0029  -0.2302  -1.1635   0.3695  -2.8776  -1.8468   0.5281
  36 O_a :2py    0.0064  -0.3145  -3.3307   1.6023  -9.9295  -3.9419   1.1135
  37 O_a :2py   -0.0026   0.8007  -3.2338   3.2055  -4.5421  -0.6710   1.9132
  39 O_a :3d1-   0.0062  -0.0020  -0.0127   0.0011  -0.0157  -0.0126   0.0117
  40 O_a :3d1-   0.0235   0.0147   0.0470  -0.0202   0.1148   0.1259  -0.0781
  41 O_a :3d1-   0.0255   0.1417   0.6355  -0.2241   1.8886   1.0558  -0.1875
  42 O_a :3d1-   0.0066   0.0878   1.3283  -0.8115   3.0403   1.9139  -2.9441
  46 O_a :4f1-  -0.0040  -0.0002  -0.0013   0.0015   0.0019  -0.0080   0.0132
  48 O_a :4f1-  -0.0095  -0.0293  -0.1212   0.0358  -0.3706  -0.2046   0.0394
  50 O_a :4f1-  -0.0037  -0.0206  -0.2390   0.1323  -0.5348  -0.3600   0.6177
  54 O_a :5g1-   0.0024   0.0030   0.0099  -0.0015   0.0329   0.0184   0.0060
  56 O_a :5g1-   0.0026   0.0063   0.0437  -0.0189   0.1073   0.0682  -0.0816
  62 O_a :6h1-  -0.0008  -0.0014  -0.0068   0.0020  -0.0167  -0.0117   0.0051

    Orbital         8        9       10       11
   1 C_a :2py    0.0000  -0.3107   0.0661  -0.7790
   2 C_a :2py   -0.0000   0.1048  -0.1044   0.2316
   3 C_a :2py   -0.0000  -2.1884   1.7468  -0.7567
   4 C_a :2py   -0.0000 -13.6943   2.2207  -4.0294
   5 C_a :2py   -0.0000 -10.3510  -1.3843  -3.9307
   6 C_a :2py    0.0000  -0.4037  -0.5092   0.3656
   8 C_a :3d1-   0.0000   0.0280   0.0565  -0.0006
   9 C_a :3d1-  -0.0000  -2.3729   1.0763  -0.6253
  10 C_a :3d1-   0.0000  -7.3331  -0.2458  -5.5880
  11 C_a :3d1-  -0.0000  -4.0802  -1.7038  -0.7204
  12 C_a :4f3-  -0.0189  -0.0000   0.0000  -0.0000
  13 C_a :4f1-   0.0000   0.0167  -0.0070  -0.0001
  14 C_a :4f3-   0.0866   0.0000  -0.0000   0.0000
  15 C_a :4f1-   0.0000  -0.3460   0.1895  -0.0435
  16 C_a :4f3-  -0.2898  -0.0000   0.0000  -0.0000
  17 C_a :4f1-  -0.0000  -1.7091   0.1114  -1.3179
  18 C_a :4f3-   1.2098   0.0000  -0.0000   0.0000
  19 C_a :4f1-   0.0000  -1.6651  -2.4735  -1.6547
  21 C_a :5g1-   0.0000  -0.0217   0.0027  -0.0061
  22 C_a :5g3-  -0.0278   0.0000  -0.0000  -0.0000
  23 C_a :5g1-  -0.0000  -0.1889   0.1272  -0.0956
  24 C_a :5g3-   0.0465  -0.0000   0.0000  -0.0000
  25 C_a :5g1-  -0.0000  -0.3596  -0.4604  -0.5770
  28 C_a :6h1-   0.0000  -0.0243   0.0261   0.0012
  31 C_a :6h1-  -0.0000  -0.0229  -0.0678  -0.1064
  32 O_a :2py   -0.0000  -0.2395   0.0061   0.2993
  33 O_a :2py    0.0000  -0.0337   0.0306   0.0187
  34 O_a :2py    0.0000  -0.0285   0.0141   0.0223
  35 O_a :2py    0.0000   6.1873  -0.2861   4.5170
  36 O_a :2py    0.0000  18.8430  -0.1317   6.1571
  37 O_a :2py    0.0000   3.1866   1.0499   0.4952
  39 O_a :3d1-  -0.0000   0.0444  -0.0164   0.0446
  40 O_a :3d1-  -0.0000  -0.2764   0.0837  -0.2177
  41 O_a :3d1-  -0.0000  -4.2209   1.4560  -1.3361
  42 O_a :3d1-   0.0000  -6.9343   2.4956  -1.3711
  46 O_a :4f1-   0.0000   0.0001   0.0012   0.0204
  47 O_a :4f3-   0.0459   0.0000  -0.0000   0.0000
  48 O_a :4f1-   0.0000   0.8405  -0.4464   0.1554
  49 O_a :4f3-  -0.1326  -0.0000  -0.0000   0.0000
  50 O_a :4f1-   0.0000   1.3837  -1.1790  -0.0912
  54 O_a :5g1-  -0.0000  -0.0702   0.0225  -0.0281
  55 O_a :5g3-  -0.0118  -0.0000   0.0000  -0.0000
  56 O_a :5g1-  -0.0000  -0.2615   0.2530   0.0435
  62 O_a :6h1-   0.0000   0.0354  -0.0284   0.0021

 Molecular orbitals for symmetry species 4  (A2 )
 ------------------------------------------------

    Orbital         1        2        3        4        5        6        7
   1 C_a :3d2-  -0.0043  -0.0019   0.0040   0.0020   0.0194  -0.0039   0.0000
   2 C_a :3d2-   0.0093   0.0241  -0.0353  -0.0301  -0.1237  -0.0611   0.0000
   3 C_a :3d2-   0.0040  -0.2003  -0.0170  -0.4678   1.3207   0.9899   0.0000
   4 C_a :3d2-   0.1526  -1.5004   0.3186  -4.2615   4.4019   4.6921   0.0000
   5 C_a :3d2-  -1.3518  -1.1809   1.0687  -0.4333   0.7836   0.1354   0.0000
   6 C_a :4f2-  -0.0021  -0.0031  -0.0061   0.0130  -0.0020  -0.0434   0.0000
   7 C_a :4f2-   0.0197   0.0047   0.0140  -0.1193   0.1369   0.3241   0.0000
   8 C_a :4f2-   0.1293  -0.5511  -0.1842  -1.2800   2.3345   1.9163   0.0000
   9 C_a :4f2-  -0.2370  -0.8466   1.8942  -2.2003   1.4762   1.7447   0.0000
  10 C_a :5g4-   0.0000   0.0000   0.0000   0.0000   0.0000   0.0000   0.0584
  12 C_a :5g4-   0.0000   0.0000   0.0000   0.0000   0.0000   0.0000  -0.3360
  13 C_a :5g2-   0.0477  -0.0244  -0.0961  -0.1682   0.2898   0.4250   0.0000
  14 C_a :5g4-   0.0000   0.0000   0.0000   0.0000   0.0000   0.0000   1.2015
  15 C_a :5g2-   0.0193  -0.2891   0.1795  -0.7157   0.8506   0.8772   0.0000
  17 C_a :6h2-   0.0010   0.0050  -0.0101   0.0129   0.0135   0.0079   0.0000
  18 C_a :6h4-   0.0000   0.0000   0.0000   0.0000   0.0000   0.0000   0.0109
  19 C_a :6h2-   0.0254  -0.0440  -0.0079  -0.1816   0.1550   0.2729   0.0000
  21 O_a :3d2-   0.0001  -0.0125  -0.0210  -0.0092   0.0457  -0.0611   0.0000
  22 O_a :3d2-  -0.0173   0.0749   0.0785   0.0120  -0.0783   0.0390   0.0000
  23 O_a :3d2-  -0.1992   0.5427  -0.1846   1.9590  -2.4189  -4.2683   0.0000
  24 O_a :3d2-   0.4754   2.9639  -1.8816   3.5472  -3.8038  -2.4305   0.0000
  26 O_a :4f2-  -0.0063   0.0119   0.0107   0.0397  -0.0218  -0.0257   0.0000
  27 O_a :4f2-   0.0969  -0.1444  -0.1222  -0.5428   0.7000   0.9675   0.0000
  28 O_a :4f2-  -0.0370  -0.8058   0.3998  -1.4706   3.3840   2.6468   0.0000
  32 O_a :5g2-  -0.0106  -0.0188   0.0130   0.0098   0.0067  -0.0789   0.0000
  33 O_a :5g4-   0.0000   0.0000   0.0000   0.0000   0.0000   0.0000  -0.0153
  34 O_a :5g2-  -0.0226   0.1485   0.0245   0.3072  -0.6570  -0.5503   0.0000
  36 O_a :6h2-  -0.0000   0.0020  -0.0009   0.0047  -0.0132  -0.0132   0.0000
  38 O_a :6h2-   0.0047  -0.0085  -0.0040  -0.0328   0.0869   0.1066   0.0000

    Orbital         8        9       10
   1 C_a :3d2-  -0.0375  -0.0211   0.0621
   2 C_a :3d2-   0.0293   0.0229  -0.2549
   3 C_a :3d2-   0.2603  -0.6543   3.3555
   4 C_a :3d2-   2.0638   2.1432   5.6468
   5 C_a :3d2-  -0.4424   0.1697   0.3471
   7 C_a :4f2-   0.1707  -0.1123   0.2966
   8 C_a :4f2-   2.5648   0.6392   5.3114
   9 C_a :4f2-  -0.3721   1.1493   1.5548
  11 C_a :5g2-  -0.0311   0.0201   0.0123
  13 C_a :5g2-   0.5921  -0.2761   0.5580
  15 C_a :5g2-   0.2319   1.8729   2.6478
  17 C_a :6h2-   0.0245  -0.0719   0.0285
  19 C_a :6h2-   0.2523   0.2466   0.4280
  21 O_a :3d2-   0.0481   0.0112  -0.0042
  22 O_a :3d2-  -0.2363  -0.0206  -0.0535
  23 O_a :3d2-  -2.3873  -1.6408  -7.6466
  24 O_a :3d2-  -0.1078  -1.3247  -2.8635
  25 O_a :4f2-   0.0121   0.0165   0.0131
  26 O_a :4f2-  -0.0691  -0.0772  -0.1130
  27 O_a :4f2-   1.1712   0.3559   1.8133
  28 O_a :4f2-   0.7112   0.1653   3.5316
  30 O_a :5g2-   0.0065  -0.0039   0.0105
  32 O_a :5g2-  -0.0724   0.0442  -0.0890
  34 O_a :5g2-  -0.5482   0.0887  -1.0215
  36 O_a :6h2-  -0.0057   0.0095  -0.0180
  38 O_a :6h2-   0.0779  -0.0816   0.1519

  Total CPU  time used in SIRIUS :  23.60 seconds
  Total wall time used in SIRIUS :  23.63 seconds

 
     Date and time (Linux)  : Wed Jan 11 14:15:39 2023
     Host name              : cn023                                   


                     .---------------------------------------.
                     | End of Wave Function Section (SIRIUS) |
                     `---------------------------------------'



                 .------------------------------------------------.
                 | Starting in Dynamic Property Section (RESPONS) |
                 `------------------------------------------------'


 ----------------------------------------------------------------------------------------
  RESPONSE  -  an MCSCF, MC-srDFT, DFT, SOPPA and SOPPA-srDFT response property program
 ----------------------------------------------------------------------------------------


 -------- OUTPUT FROM RESPONSE INPUT PROCESSING --------




 Linear Response calculation
 ---------------------------

 Print level                                    : IPRLR  =   2
 Maximum number of iterations                   : MAXITL =  60
 Threshold for relative convergence             : THCLR  = 1.000D-03
 Maximum iterations in optimal orbital algorithm: MAXITO =   5

  9 B-frequencies  0.000000D+00  2.015931D-02  4.031862D-02  6.047794D-02  8.063725D-02
  1.007966D-01  1.209559D-01  1.411152D-01  1.612745D-01

    1 second order properties calculated with symmetry no.    1 and labels:

          ZDIPLEN 

    1 second order properties calculated with symmetry no.    2 and labels:

          XDIPLEN 

    1 second order properties calculated with symmetry no.    3 and labels:

          YDIPLEN 


   SCF energy         :     -112.790673752671495
 -- inactive part     :     -135.304745047230597
 -- nuclear repulsion :       22.514071294559098


                     ***************************************
                     *** RHF response calculation (TDHF) ***
                     ***************************************

 ----------------------------------------------------------------
 ----- Linear response calculation
 ----- Symmetry of excitation/property operator(s)    1  ( A1 )
 ----------------------------------------------------------------

 Number of excitations of this symmetry            0
 Number of response properties of this symmetry    1
 Number of C6/C8 properties of this symmetry       0


 Perturbation symmetry.     KSYMOP:           1
 Perturbation spin symmetry.TRPLET:           F
 Orbital variables.         KZWOPT:         557
 Configuration variables.   KZCONF:           0
 Total number of variables. KZVAR :         557


 RSPLR -- linear response calculation for symmetry 1  ( A1 )
 RSPLR -- operator label : ZDIPLEN 
 RSPLR -- operator spin  :   0
 RSPLR -- frequencies    :     0.000000  0.020159  0.040319  0.060478  0.080637
                               0.100797  0.120956  0.141115  0.161274



 ---  SOLVING SETS OF LINEAR EQUATIONS FOR LINEAR RESPONSE PROPERTIES ---

 Operator symmetry = 1  ( A1 ); triplet =   F


 ** RSPCTL MICROITERATION NUMBER    1

       No.  Residual tot.,    conf., and orb.    Bnorm      Frequency 
      ----------------------------------------------------------------
         1    3.04893D+00  0.00D+00  3.05D+00  2.49D+00    0.00000D+00
         2    3.05182D+00  0.00D+00  3.05D+00  2.50D+00    2.01593D-02
         3    3.06055D+00  0.00D+00  3.06D+00  2.51D+00    4.03186D-02
         4    3.07522D+00  0.00D+00  3.08D+00  2.54D+00    6.04779D-02
         5    3.09605D+00  0.00D+00  3.10D+00  2.57D+00    8.06372D-02
         6    3.12334D+00  0.00D+00  3.12D+00  2.62D+00    1.00797D-01
         7    3.15748D+00  0.00D+00  3.16D+00  2.68D+00    1.20956D-01
         8    3.19901D+00  0.00D+00  3.20D+00  2.76D+00    1.41115D-01
         9    3.24860D+00  0.00D+00  3.25D+00  2.84D+00    1.61274D-01

 ** RSPCTL MICROITERATION NUMBER    2

       No.  Residual tot.,    conf., and orb.    Bnorm      Frequency 
      ----------------------------------------------------------------
         1    5.60043D-01  0.00D+00  5.60D-01  3.14D+00    0.00000D+00
         2    5.60976D-01  0.00D+00  5.61D-01  3.15D+00    2.01593D-02
         3    5.63795D-01  0.00D+00  5.64D-01  3.17D+00    4.03186D-02
         4    5.68556D-01  0.00D+00  5.69D-01  3.21D+00    6.04779D-02
         5    5.75361D-01  0.00D+00  5.75D-01  3.26D+00    8.06372D-02
         6    5.84355D-01  0.00D+00  5.84D-01  3.33D+00    1.00797D-01
         7    5.95743D-01  0.00D+00  5.96D-01  3.41D+00    1.20956D-01
         8    6.09796D-01  0.00D+00  6.10D-01  3.52D+00    1.41115D-01
         9    6.26874D-01  0.00D+00  6.27D-01  3.65D+00    1.61274D-01

 ** RSPCTL MICROITERATION NUMBER    3

       No.  Residual tot.,    conf., and orb.    Bnorm      Frequency 
      ----------------------------------------------------------------
         1    7.16688D-02  0.00D+00  7.17D-02  3.17D+00    0.00000D+00
         2    7.18210D-02  0.00D+00  7.18D-02  3.17D+00    2.01593D-02
         3    7.22807D-02  0.00D+00  7.23D-02  3.20D+00    4.03186D-02
         4    7.30580D-02  0.00D+00  7.31D-02  3.23D+00    6.04779D-02
         5    7.41705D-02  0.00D+00  7.42D-02  3.29D+00    8.06372D-02
         6    7.56435D-02  0.00D+00  7.56D-02  3.35D+00    1.00797D-01
         7    7.75122D-02  0.00D+00  7.75D-02  3.44D+00    1.20956D-01
         8    7.98233D-02  0.00D+00  7.98D-02  3.55D+00    1.41115D-01
         9    8.26377D-02  0.00D+00  8.26D-02  3.68D+00    1.61274D-01

 ** RSPCTL MICROITERATION NUMBER    4

       No.  Residual tot.,    conf., and orb.    Bnorm      Frequency 
      ----------------------------------------------------------------
         1    7.37178D-03  0.00D+00  7.37D-03  3.17D+00    0.00000D+00
         2    7.40253D-03  0.00D+00  7.40D-03  3.17D+00    2.01593D-02
         3    7.49582D-03  0.00D+00  7.50D-03  3.20D+00    4.03186D-02
         4    7.65480D-03  0.00D+00  7.65D-03  3.23D+00    6.04779D-02
         5    7.88500D-03  0.00D+00  7.88D-03  3.29D+00    8.06372D-02
         6    8.19467D-03  0.00D+00  8.19D-03  3.35D+00    1.00797D-01
         7    8.59548D-03  0.00D+00  8.60D-03  3.44D+00    1.20956D-01
         8    9.10341D-03  0.00D+00  9.10D-03  3.55D+00    1.41115D-01
         9    9.74005D-03  0.00D+00  9.74D-03  3.68D+00    1.61274D-01

 ** RSPCTL MICROITERATION NUMBER    5

       No.  Residual tot.,    conf., and orb.    Bnorm      Frequency 
      ----------------------------------------------------------------
         1    6.00421D-04  0.00D+00  6.00D-04  3.17D+00    0.00000D+00
         2    6.04244D-04  0.00D+00  6.04D-04  3.17D+00    2.01593D-02
         3    6.15917D-04  0.00D+00  6.16D-04  3.20D+00    4.03186D-02
         4    6.36068D-04  0.00D+00  6.36D-04  3.23D+00    6.04779D-02
         5    6.65814D-04  0.00D+00  6.66D-04  3.29D+00    8.06372D-02
         6    7.06885D-04  0.00D+00  7.07D-04  3.35D+00    1.00797D-01
         7    7.61814D-04  0.00D+00  7.62D-04  3.44D+00    1.20956D-01
         8    8.34249D-04  0.00D+00  8.34D-04  3.55D+00    1.41115D-01
         9    9.29431D-04  0.00D+00  9.29D-04  3.68D+00    1.61274D-01

 *** THE REQUESTED    9 SOLUTION VECTORS CONVERGED

 Convergence of RSP solution vectors, threshold = 1.00D-03
 ---------------------------------------------------------------
 (dimension of paired reduced space:   90)
 RSP solution vector no.    1; norm of residual   1.90D-04
 RSP solution vector no.    2; norm of residual   1.90D-04
 RSP solution vector no.    3; norm of residual   1.93D-04
 RSP solution vector no.    4; norm of residual   1.97D-04
 RSP solution vector no.    5; norm of residual   2.03D-04
 RSP solution vector no.    6; norm of residual   2.11D-04
 RSP solution vector no.    7; norm of residual   2.21D-04
 RSP solution vector no.    8; norm of residual   2.35D-04
 RSP solution vector no.    9; norm of residual   2.53D-04

 *** RSPCTL MICROITERATIONS CONVERGED


           Final output of second order properties from linear response
           ------------------------------------------------------------


@ Spin symmetry of operators: singlet

 Note that minus the linear response function: - << A; B >>(omega) is printed.
 The results are of quadratic accuracy using Sellers formula.

@ FREQUENCY INDEPENDENT SECOND ORDER PROPERTIES

@ -<< ZDIPLEN  ; ZDIPLEN  >> =  1.446826209274E+01

@ FREQUENCY DEPENDENT SECOND ORDER PROPERTIES WITH FREQUENCY :

@    a.u.:  2.0159312D-02
@    cm-1:  4.4244576D+03
@    eV  :  5.4856280D-01
@  kJ/mol:  5.2928267D+01
@    nm  :  2.2601640D+03

@ -<< ZDIPLEN  ; ZDIPLEN  >> =  1.448510149083E+01

@ FREQUENCY DEPENDENT SECOND ORDER PROPERTIES WITH FREQUENCY :

@    a.u.:  4.0318625D-02
@    cm-1:  8.8489153D+03
@    eV  :  1.0971256D+00
@  kJ/mol:  1.0585653D+02
@    nm  :  1.1300820D+03

@ -<< ZDIPLEN  ; ZDIPLEN  >> =  1.453591276088E+01

@ FREQUENCY DEPENDENT SECOND ORDER PROPERTIES WITH FREQUENCY :

@    a.u.:  6.0477937D-02
@    cm-1:  1.3273373D+04
@    eV  :  1.6456884D+00
@  kJ/mol:  1.5878480D+02
@    nm  :  7.5338801D+02

@ -<< ZDIPLEN  ; ZDIPLEN  >> =  1.462158927723E+01

@ FREQUENCY DEPENDENT SECOND ORDER PROPERTIES WITH FREQUENCY :

@    a.u.:  8.0637250D-02
@    cm-1:  1.7697831D+04
@    eV  :  2.1942512D+00
@  kJ/mol:  2.1171307D+02
@    nm  :  5.6504101D+02

@ -<< ZDIPLEN  ; ZDIPLEN  >> =  1.474366852480E+01

@ FREQUENCY DEPENDENT SECOND ORDER PROPERTIES WITH FREQUENCY :

@    a.u.:  1.0079656D-01
@    cm-1:  2.2122288D+04
@    eV  :  2.7428140D+00
@  kJ/mol:  2.6464133D+02
@    nm  :  4.5203281D+02

@ -<< ZDIPLEN  ; ZDIPLEN  >> =  1.490440991574E+01

@ FREQUENCY DEPENDENT SECOND ORDER PROPERTIES WITH FREQUENCY :

@    a.u.:  1.2095587D-01
@    cm-1:  2.6546746D+04
@    eV  :  3.2913768D+00
@  kJ/mol:  3.1756960D+02
@    nm  :  3.7669400D+02

@ -<< ZDIPLEN  ; ZDIPLEN  >> =  1.510691466103E+01

@ FREQUENCY DEPENDENT SECOND ORDER PROPERTIES WITH FREQUENCY :

@    a.u.:  1.4111519D-01
@    cm-1:  3.0971203D+04
@    eV  :  3.8399396D+00
@  kJ/mol:  3.7049787D+02
@    nm  :  3.2288058D+02

@ -<< ZDIPLEN  ; ZDIPLEN  >> =  1.535530091083E+01

@ FREQUENCY DEPENDENT SECOND ORDER PROPERTIES WITH FREQUENCY :

@    a.u.:  1.6127450D-01
@    cm-1:  3.5395661D+04
@    eV  :  4.3885024D+00
@  kJ/mol:  4.2342613D+02
@    nm  :  2.8252050D+02

@ -<< ZDIPLEN  ; ZDIPLEN  >> =  1.565495512364E+01


 Time used in linear response calculation is     20.45 CPU seconds for symmetry 1
 ----------------------------------------------------------------
 ----- Linear response calculation
 ----- Symmetry of excitation/property operator(s)    2  ( B1 )
 ----------------------------------------------------------------

 Number of excitations of this symmetry            0
 Number of response properties of this symmetry    1
 Number of C6/C8 properties of this symmetry       0


 Perturbation symmetry.     KSYMOP:           2
 Perturbation spin symmetry.TRPLET:           F
 Orbital variables.         KZWOPT:         430
 Configuration variables.   KZCONF:           0
 Total number of variables. KZVAR :         430


 RSPLR -- linear response calculation for symmetry 2  ( B1 )
 RSPLR -- operator label : XDIPLEN 
 RSPLR -- operator spin  :   0
 RSPLR -- frequencies    :     0.000000  0.020159  0.040319  0.060478  0.080637
                               0.100797  0.120956  0.141115  0.161274



 ---  SOLVING SETS OF LINEAR EQUATIONS FOR LINEAR RESPONSE PROPERTIES ---

 Operator symmetry = 2  ( B1 ); triplet =   F


 ** RSPCTL MICROITERATION NUMBER    1

       No.  Residual tot.,    conf., and orb.    Bnorm      Frequency 
      ----------------------------------------------------------------
         1    9.32487D-01  0.00D+00  9.32D-01  2.79D+00    0.00000D+00
         2    9.34554D-01  0.00D+00  9.35D-01  2.80D+00    2.01593D-02
         3    9.40845D-01  0.00D+00  9.41D-01  2.82D+00    4.03186D-02
         4    9.51632D-01  0.00D+00  9.52D-01  2.87D+00    6.04779D-02
         5    9.67400D-01  0.00D+00  9.67D-01  2.94D+00    8.06372D-02
         6    9.88902D-01  0.00D+00  9.89D-01  3.03D+00    1.00797D-01
         7    1.01724D+00  0.00D+00  1.02D+00  3.15D+00    1.20956D-01
         8    1.05400D+00  0.00D+00  1.05D+00  3.30D+00    1.41115D-01
         9    1.10150D+00  0.00D+00  1.10D+00  3.49D+00    1.61274D-01

 ** RSPCTL MICROITERATION NUMBER    2

       No.  Residual tot.,    conf., and orb.    Bnorm      Frequency 
      ----------------------------------------------------------------
         1    1.52559D-01  0.00D+00  1.53D-01  2.86D+00    0.00000D+00
         2    1.53274D-01  0.00D+00  1.53D-01  2.87D+00    2.01593D-02
         3    1.55462D-01  0.00D+00  1.55D-01  2.90D+00    4.03186D-02
         4    1.59256D-01  0.00D+00  1.59D-01  2.96D+00    6.04779D-02
         5    1.64897D-01  0.00D+00  1.65D-01  3.04D+00    8.06372D-02
         6    1.72771D-01  0.00D+00  1.73D-01  3.15D+00    1.00797D-01
         7    1.83473D-01  0.00D+00  1.83D-01  3.29D+00    1.20956D-01
         8    1.97914D-01  0.00D+00  1.98D-01  3.48D+00    1.41115D-01
         9    2.17524D-01  0.00D+00  2.18D-01  3.73D+00    1.61274D-01

 ** RSPCTL MICROITERATION NUMBER    3

       No.  Residual tot.,    conf., and orb.    Bnorm      Frequency 
      ----------------------------------------------------------------
         1    1.66168D-02  0.00D+00  1.66D-02  2.86D+00    0.00000D+00
         2    1.67183D-02  0.00D+00  1.67D-02  2.87D+00    2.01593D-02
         3    1.70293D-02  0.00D+00  1.70D-02  2.90D+00    4.03186D-02
         4    1.75698D-02  0.00D+00  1.76D-02  2.96D+00    6.04779D-02
         5    1.83767D-02  0.00D+00  1.84D-02  3.04D+00    8.06372D-02
         6    1.95087D-02  0.00D+00  1.95D-02  3.15D+00    1.00797D-01
         7    2.10564D-02  0.00D+00  2.11D-02  3.30D+00    1.20956D-01
         8    2.31591D-02  0.00D+00  2.32D-02  3.49D+00    1.41115D-01
         9    2.60357D-02  0.00D+00  2.60D-02  3.74D+00    1.61274D-01

 ** RSPCTL MICROITERATION NUMBER    4

       No.  Residual tot.,    conf., and orb.    Bnorm      Frequency 
      ----------------------------------------------------------------
         1    1.15514D-03  0.00D+00  1.16D-03  2.86D+00    0.00000D+00
         2    1.16451D-03  0.00D+00  1.16D-03  2.87D+00    2.01593D-02
         3    1.19324D-03  0.00D+00  1.19D-03  2.90D+00    4.03186D-02
         4    1.24324D-03  0.00D+00  1.24D-03  2.96D+00    6.04779D-02
         5    1.31802D-03  0.00D+00  1.32D-03  3.04D+00    8.06372D-02
         6    1.42325D-03  0.00D+00  1.42D-03  3.15D+00    1.00797D-01
         7    1.56774D-03  0.00D+00  1.57D-03  3.30D+00    1.20956D-01
         8    1.76519D-03  0.00D+00  1.77D-03  3.49D+00    1.41115D-01
         9    2.03733D-03  0.00D+00  2.04D-03  3.74D+00    1.61274D-01

 *** THE REQUESTED    9 SOLUTION VECTORS CONVERGED

 Convergence of RSP solution vectors, threshold = 1.00D-03
 ---------------------------------------------------------------
 (dimension of paired reduced space:   72)
 RSP solution vector no.    1; norm of residual   4.04D-04
 RSP solution vector no.    2; norm of residual   4.05D-04
 RSP solution vector no.    3; norm of residual   4.11D-04
 RSP solution vector no.    4; norm of residual   4.20D-04
 RSP solution vector no.    5; norm of residual   4.33D-04
 RSP solution vector no.    6; norm of residual   4.52D-04
 RSP solution vector no.    7; norm of residual   4.75D-04
 RSP solution vector no.    8; norm of residual   5.06D-04
 RSP solution vector no.    9; norm of residual   5.44D-04

 *** RSPCTL MICROITERATIONS CONVERGED


           Final output of second order properties from linear response
           ------------------------------------------------------------


@ Spin symmetry of operators: singlet

 Note that minus the linear response function: - << A; B >>(omega) is printed.
 The results are of quadratic accuracy using Sellers formula.

@ FREQUENCY INDEPENDENT SECOND ORDER PROPERTIES

@ -<< XDIPLEN  ; XDIPLEN  >> =  1.127000448008E+01

@ FREQUENCY DEPENDENT SECOND ORDER PROPERTIES WITH FREQUENCY :

@    a.u.:  2.0159312D-02
@    cm-1:  4.4244576D+03
@    eV  :  5.4856280D-01
@  kJ/mol:  5.2928267D+01
@    nm  :  2.2601640D+03

@ -<< XDIPLEN  ; XDIPLEN  >> =  1.128711971666E+01

@ FREQUENCY DEPENDENT SECOND ORDER PROPERTIES WITH FREQUENCY :

@    a.u.:  4.0318625D-02
@    cm-1:  8.8489153D+03
@    eV  :  1.0971256D+00
@  kJ/mol:  1.0585653D+02
@    nm  :  1.1300820D+03

@ -<< XDIPLEN  ; XDIPLEN  >> =  1.133902937141E+01

@ FREQUENCY DEPENDENT SECOND ORDER PROPERTIES WITH FREQUENCY :

@    a.u.:  6.0477937D-02
@    cm-1:  1.3273373D+04
@    eV  :  1.6456884D+00
@  kJ/mol:  1.5878480D+02
@    nm  :  7.5338801D+02

@ -<< XDIPLEN  ; XDIPLEN  >> =  1.142748544221E+01

@ FREQUENCY DEPENDENT SECOND ORDER PROPERTIES WITH FREQUENCY :

@    a.u.:  8.0637250D-02
@    cm-1:  1.7697831D+04
@    eV  :  2.1942512D+00
@  kJ/mol:  2.1171307D+02
@    nm  :  5.6504101D+02

@ -<< XDIPLEN  ; XDIPLEN  >> =  1.155562189411E+01

@ FREQUENCY DEPENDENT SECOND ORDER PROPERTIES WITH FREQUENCY :

@    a.u.:  1.0079656D-01
@    cm-1:  2.2122288D+04
@    eV  :  2.7428140D+00
@  kJ/mol:  2.6464133D+02
@    nm  :  4.5203281D+02

@ -<< XDIPLEN  ; XDIPLEN  >> =  1.172832775590E+01

@ FREQUENCY DEPENDENT SECOND ORDER PROPERTIES WITH FREQUENCY :

@    a.u.:  1.2095587D-01
@    cm-1:  2.6546746D+04
@    eV  :  3.2913768D+00
@  kJ/mol:  3.1756960D+02
@    nm  :  3.7669400D+02

@ -<< XDIPLEN  ; XDIPLEN  >> =  1.195289537459E+01

@ FREQUENCY DEPENDENT SECOND ORDER PROPERTIES WITH FREQUENCY :

@    a.u.:  1.4111519D-01
@    cm-1:  3.0971203D+04
@    eV  :  3.8399396D+00
@  kJ/mol:  3.7049787D+02
@    nm  :  3.2288058D+02

@ -<< XDIPLEN  ; XDIPLEN  >> =  1.224013422104E+01

@ FREQUENCY DEPENDENT SECOND ORDER PROPERTIES WITH FREQUENCY :

@    a.u.:  1.6127450D-01
@    cm-1:  3.5395661D+04
@    eV  :  4.3885024D+00
@  kJ/mol:  4.2342613D+02
@    nm  :  2.8252050D+02

@ -<< XDIPLEN  ; XDIPLEN  >> =  1.260633658571E+01


 Time used in linear response calculation is     16.48 CPU seconds for symmetry 2
 ----------------------------------------------------------------
 ----- Linear response calculation
 ----- Symmetry of excitation/property operator(s)    3  ( B2 )
 ----------------------------------------------------------------

 Number of excitations of this symmetry            0
 Number of response properties of this symmetry    1
 Number of C6/C8 properties of this symmetry       0


 Perturbation symmetry.     KSYMOP:           3
 Perturbation spin symmetry.TRPLET:           F
 Orbital variables.         KZWOPT:         430
 Configuration variables.   KZCONF:           0
 Total number of variables. KZVAR :         430


 RSPLR -- linear response calculation for symmetry 3  ( B2 )
 RSPLR -- operator label : YDIPLEN 
 RSPLR -- operator spin  :   0
 RSPLR -- frequencies    :     0.000000  0.020159  0.040319  0.060478  0.080637
                               0.100797  0.120956  0.141115  0.161274



 ---  SOLVING SETS OF LINEAR EQUATIONS FOR LINEAR RESPONSE PROPERTIES ---

 Operator symmetry = 3  ( B2 ); triplet =   F

RSPORT:    1 out of    9 new trial vectors linear dependent

 ** RSPCTL MICROITERATION NUMBER    1

       No.  Residual tot.,    conf., and orb.    Bnorm      Frequency 
      ----------------------------------------------------------------
         1    9.31891D-01  0.00D+00  9.32D-01  2.79D+00    0.00000D+00
         2    9.33952D-01  0.00D+00  9.34D-01  2.80D+00    2.01593D-02
         3    9.40221D-01  0.00D+00  9.40D-01  2.82D+00    4.03186D-02
         4    9.50970D-01  0.00D+00  9.51D-01  2.87D+00    6.04779D-02
         5    9.66681D-01  0.00D+00  9.67D-01  2.94D+00    8.06372D-02
         6    9.88099D-01  0.00D+00  9.88D-01  3.03D+00    1.00797D-01
         7    1.01632D+00  0.00D+00  1.02D+00  3.15D+00    1.20956D-01
         8    1.05292D+00  0.00D+00  1.05D+00  3.30D+00    1.41115D-01
         9    1.10021D+00  0.00D+00  1.10D+00  3.49D+00    1.61274D-01

 ** RSPCTL MICROITERATION NUMBER    2

       No.  Residual tot.,    conf., and orb.    Bnorm      Frequency 
      ----------------------------------------------------------------
         1    1.44876D-01  0.00D+00  1.45D-01  2.86D+00    0.00000D+00
         2    1.45577D-01  0.00D+00  1.46D-01  2.87D+00    2.01593D-02
         3    1.47723D-01  0.00D+00  1.48D-01  2.90D+00    4.03186D-02
         4    1.51450D-01  0.00D+00  1.51D-01  2.96D+00    6.04779D-02
         5    1.57005D-01  0.00D+00  1.57D-01  3.04D+00    8.06372D-02
         6    1.64785D-01  0.00D+00  1.65D-01  3.15D+00    1.00797D-01
         7    1.75399D-01  0.00D+00  1.75D-01  3.29D+00    1.20956D-01
         8    1.89782D-01  0.00D+00  1.90D-01  3.48D+00    1.41115D-01
         9    2.09395D-01  0.00D+00  2.09D-01  3.73D+00    1.61274D-01

 ** RSPCTL MICROITERATION NUMBER    3

       No.  Residual tot.,    conf., and orb.    Bnorm      Frequency 
      ----------------------------------------------------------------
         1    1.73193D-02  0.00D+00  1.73D-02  2.86D+00    0.00000D+00
         2    1.74230D-02  0.00D+00  1.74D-02  2.87D+00    2.01593D-02
         3    1.77411D-02  0.00D+00  1.77D-02  2.90D+00    4.03186D-02
         4    1.82957D-02  0.00D+00  1.83D-02  2.96D+00    6.04779D-02
         5    1.91267D-02  0.00D+00  1.91D-02  3.04D+00    8.06372D-02
         6    2.02977D-02  0.00D+00  2.03D-02  3.15D+00    1.00797D-01
         7    2.19063D-02  0.00D+00  2.19D-02  3.30D+00    1.20956D-01
         8    2.41014D-02  0.00D+00  2.41D-02  3.49D+00    1.41115D-01
         9    2.71153D-02  0.00D+00  2.71D-02  3.74D+00    1.61274D-01

 ** RSPCTL MICROITERATION NUMBER    4

       No.  Residual tot.,    conf., and orb.    Bnorm      Frequency 
      ----------------------------------------------------------------
         1    1.20050D-03  0.00D+00  1.20D-03  2.86D+00    0.00000D+00
         2    1.20899D-03  0.00D+00  1.21D-03  2.87D+00    2.01593D-02
         3    1.23516D-03  0.00D+00  1.24D-03  2.90D+00    4.03186D-02
         4    1.28126D-03  0.00D+00  1.28D-03  2.96D+00    6.04779D-02
         5    1.35135D-03  0.00D+00  1.35D-03  3.04D+00    8.06372D-02
         6    1.45190D-03  0.00D+00  1.45D-03  3.15D+00    1.00797D-01
         7    1.59273D-03  0.00D+00  1.59D-03  3.30D+00    1.20956D-01
         8    1.78875D-03  0.00D+00  1.79D-03  3.49D+00    1.41115D-01
         9    2.06301D-03  0.00D+00  2.06D-03  3.74D+00    1.61274D-01

 *** THE REQUESTED    9 SOLUTION VECTORS CONVERGED

 Convergence of RSP solution vectors, threshold = 1.00D-03
 ---------------------------------------------------------------
 (dimension of paired reduced space:   70)
 RSP solution vector no.    1; norm of residual   4.19D-04
 RSP solution vector no.    2; norm of residual   4.21D-04
 RSP solution vector no.    3; norm of residual   4.25D-04
 RSP solution vector no.    4; norm of residual   4.33D-04
 RSP solution vector no.    5; norm of residual   4.44D-04
 RSP solution vector no.    6; norm of residual   4.61D-04
 RSP solution vector no.    7; norm of residual   4.83D-04
 RSP solution vector no.    8; norm of residual   5.13D-04
 RSP solution vector no.    9; norm of residual   5.51D-04

 *** RSPCTL MICROITERATIONS CONVERGED


           Final output of second order properties from linear response
           ------------------------------------------------------------


@ Spin symmetry of operators: singlet

 Note that minus the linear response function: - << A; B >>(omega) is printed.
 The results are of quadratic accuracy using Sellers formula.

@ FREQUENCY INDEPENDENT SECOND ORDER PROPERTIES

@ -<< YDIPLEN  ; YDIPLEN  >> =  1.127000447900E+01

@ FREQUENCY DEPENDENT SECOND ORDER PROPERTIES WITH FREQUENCY :

@    a.u.:  2.0159312D-02
@    cm-1:  4.4244576D+03
@    eV  :  5.4856280D-01
@  kJ/mol:  5.2928267D+01
@    nm  :  2.2601640D+03

@ -<< YDIPLEN  ; YDIPLEN  >> =  1.128711971590E+01

@ FREQUENCY DEPENDENT SECOND ORDER PROPERTIES WITH FREQUENCY :

@    a.u.:  4.0318625D-02
@    cm-1:  8.8489153D+03
@    eV  :  1.0971256D+00
@  kJ/mol:  1.0585653D+02
@    nm  :  1.1300820D+03

@ -<< YDIPLEN  ; YDIPLEN  >> =  1.133902937163E+01

@ FREQUENCY DEPENDENT SECOND ORDER PROPERTIES WITH FREQUENCY :

@    a.u.:  6.0477937D-02
@    cm-1:  1.3273373D+04
@    eV  :  1.6456884D+00
@  kJ/mol:  1.5878480D+02
@    nm  :  7.5338801D+02

@ -<< YDIPLEN  ; YDIPLEN  >> =  1.142748544415E+01

@ FREQUENCY DEPENDENT SECOND ORDER PROPERTIES WITH FREQUENCY :

@    a.u.:  8.0637250D-02
@    cm-1:  1.7697831D+04
@    eV  :  2.1942512D+00
@  kJ/mol:  2.1171307D+02
@    nm  :  5.6504101D+02

@ -<< YDIPLEN  ; YDIPLEN  >> =  1.155562189867E+01

@ FREQUENCY DEPENDENT SECOND ORDER PROPERTIES WITH FREQUENCY :

@    a.u.:  1.0079656D-01
@    cm-1:  2.2122288D+04
@    eV  :  2.7428140D+00
@  kJ/mol:  2.6464133D+02
@    nm  :  4.5203281D+02

@ -<< YDIPLEN  ; YDIPLEN  >> =  1.172832776423E+01

@ FREQUENCY DEPENDENT SECOND ORDER PROPERTIES WITH FREQUENCY :

@    a.u.:  1.2095587D-01
@    cm-1:  2.6546746D+04
@    eV  :  3.2913768D+00
@  kJ/mol:  3.1756960D+02
@    nm  :  3.7669400D+02

@ -<< YDIPLEN  ; YDIPLEN  >> =  1.195289538829E+01

@ FREQUENCY DEPENDENT SECOND ORDER PROPERTIES WITH FREQUENCY :

@    a.u.:  1.4111519D-01
@    cm-1:  3.0971203D+04
@    eV  :  3.8399396D+00
@  kJ/mol:  3.7049787D+02
@    nm  :  3.2288058D+02

@ -<< YDIPLEN  ; YDIPLEN  >> =  1.224013424250E+01

@ FREQUENCY DEPENDENT SECOND ORDER PROPERTIES WITH FREQUENCY :

@    a.u.:  1.6127450D-01
@    cm-1:  3.5395661D+04
@    eV  :  4.3885024D+00
@  kJ/mol:  4.2342613D+02
@    nm  :  2.8252050D+02

@ -<< YDIPLEN  ; YDIPLEN  >> =  1.260633661881E+01


 Time used in linear response calculation is     16.32 CPU seconds for symmetry 3

  Total CPU  time used in RESPONSE:  53.26 seconds
  Total wall time used in RESPONSE:  53.31 seconds


                   .-------------------------------------------.
                   | End of Dynamic Property Section (RESPONS) |
                   `-------------------------------------------'



 PLTORB knows S,P,D,F,G shells. The basis set contains orbital(s) with higher angular momentum,
 and the writing of MOLPLT file is thus abandoned.

  Total CPU  time used in DALTON:  1 minute  18 seconds
  Total wall time used in DALTON:  1 minute  18 seconds

 
     Date and time (Linux)  : Wed Jan 11 14:16:32 2023
     Host name              : cn023                                   
