

     ************************************************************************
     *************** Dalton - An Electronic Structure Program ***************
     ************************************************************************

    This is output from DALTON release Dalton2020.0 (2020)
         ( Web site: http://daltonprogram.org )

   ----------------------------------------------------------------------------

    NOTE:
     
    Dalton is an experimental code for the evaluation of molecular
    properties using (MC)SCF, DFT, CI, and CC wave functions.
    The authors accept no responsibility for the performance of
    the code or for the correctness of the results.
     
    The code (in whole or part) is provided under a licence and
    is not to be reproduced for further distribution without
    the written permission of the authors or their representatives.
     
    See the home page "http://daltonprogram.org" for further information.
     
    If results obtained with this code are published,
    the appropriate citations would be both of:
     
       K. Aidas, C. Angeli, K. L. Bak, V. Bakken, R. Bast,
       L. Boman, O. Christiansen, R. Cimiraglia, S. Coriani,
       P. Dahle, E. K. Dalskov, U. Ekstroem,
       T. Enevoldsen, J. J. Eriksen, P. Ettenhuber, B. Fernandez,
       L. Ferrighi, H. Fliegl, L. Frediani, K. Hald, A. Halkier,
       C. Haettig, H. Heiberg, T. Helgaker, A. C. Hennum,
       H. Hettema, E. Hjertenaes, S. Hoest, I.-M. Hoeyvik,
       M. F. Iozzi, B. Jansik, H. J. Aa. Jensen, D. Jonsson,
       P. Joergensen, J. Kauczor, S. Kirpekar,
       T. Kjaergaard, W. Klopper, S. Knecht, R. Kobayashi, H. Koch,
       J. Kongsted, A. Krapp, K. Kristensen, A. Ligabue,
       O. B. Lutnaes, J. I. Melo, K. V. Mikkelsen, R. H. Myhre,
       C. Neiss, C. B. Nielsen, P. Norman, J. Olsen,
       J. M. H. Olsen, A. Osted, M. J. Packer, F. Pawlowski,
       T. B. Pedersen, P. F. Provasi, S. Reine, Z. Rinkevicius,
       T. A. Ruden, K. Ruud, V. Rybkin, P. Salek, C. C. M. Samson,
       A. Sanchez de Meras, T. Saue, S. P. A. Sauer,
       B. Schimmelpfennig, K. Sneskov, A. H. Steindal,
       K. O. Sylvester-Hvid, P. R. Taylor, A. M. Teale,
       E. I. Tellgren, D. P. Tew, A. J. Thorvaldsen, L. Thoegersen,
       O. Vahtras, M. A. Watson, D. J. D. Wilson, M. Ziolkowski
       and H. Agren,
       "The Dalton quantum chemistry program system",
       WIREs Comput. Mol. Sci. 2014, 4:269–284 (doi: 10.1002/wcms.1172)
     
    and
     
       Dalton, a molecular electronic structure program,
       Release Dalton2020.0 (2020), see http://daltonprogram.org
   ----------------------------------------------------------------------------

    Authors in alphabetical order (Major contribution(s) in parenthesis):

  Kestutis Aidas,           Vilnius University,           Lithuania   (QM/MM)
  Celestino Angeli,         University of Ferrara,        Italy       (NEVPT2)
  Keld L. Bak,              UNI-C,                        Denmark     (AOSOPPA, non-adiabatic coupling, magnetic properties)
  Vebjoern Bakken,          University of Oslo,           Norway      (DALTON; geometry optimizer, symmetry detection)
  Radovan Bast,             UiT The Arctic U. of Norway,  Norway      (DALTON installation and execution frameworks)
  Pablo Baudin,             University of Valencia,       Spain       (Cholesky excitation energies)
  Linus Boman,              NTNU,                         Norway      (Cholesky decomposition and subsystems)
  Bruno N. Cabral Tenorio,  Technical Univ. of Denmark,   Denmark     (Lanczos-based CC methods)
  Ove Christiansen,         Aarhus University,            Denmark     (CC module)
  Renzo Cimiraglia,         University of Ferrara,        Italy       (NEVPT2)
  Sonia Coriani,            Technical Univ. of Denmark,   Denmark     (CC and RESPONS modules)
  Janusz Cukras,            University of Warsaw,         Poland      (MChD in RESPONS)
  Paal Dahle,               University of Oslo,           Norway      (Parallelization)
  Erik K. Dalskov,          UNI-C,                        Denmark     (SOPPA)
  Thomas Enevoldsen,        Univ. of Southern Denmark,    Denmark     (SOPPA)
  Janus J. Eriksen,         Aarhus University,            Denmark     (Polarizable embedding, TDA)
  Rasmus Faber,             Technical Univ. of Denmark,   Denmark     (Vib.avg. NMR w. SOPPA, parallel AO-SOPPA, CVS-CC and EOMCC)
  Tobias Fahleson,          KTH Stockholm,                Sweden      (Damped cubic response)
  Berta Fernandez,          U. of Santiago de Compostela, Spain       (Doublet spin, ESR in RESPONS)
  Lara Ferrighi,            Aarhus University,            Denmark     (PCM Cubic response)
  Heike Fliegl,             University of Oslo,           Norway      (CCSD(R12))
  Luca Frediani,            UiT The Arctic U. of Norway,  Norway      (PCM)
  Emmanuel Fromager,        Univ. Strasbourg,             France      (MC-srDFT)
  Bin Gao,                  UiT The Arctic U. of Norway,  Norway      (Gen1Int library)
  Andre S. P. Gomes,        CNRS/Universite de Lille,     France      (Frozen density embedding)
  Christof Haettig,         Ruhr-University Bochum,       Germany     (CC module)
  Kasper Hald,              Aarhus University,            Denmark     (CC module)
  Asger Halkier,            Aarhus University,            Denmark     (CC module)
  Frederik Beyer Hansen,    University of Copenhagen,     Denmark     (Parallel AO-SOPPA)
  Erik D. Hedegaard,        Univ. of Southern Denmark,    Denmark     (Polarizable embedding, QM/MM, and MC-srDFT)
  Hanne Heiberg,            University of Oslo,           Norway      (Geometry analysis, selected one-electron integrals)
  Trygve Helgaker,          University of Oslo,           Norway      (DALTON; ABACUS, ERI, DFT modules, London, and much more)
  Alf Christian Hennum,     University of Oslo,           Norway      (Parity violation)
  Hinne Hettema,            University of Auckland,       New Zealand (Quadratic response in RESPONS; SIRIUS supersymmetry)
  Eirik Hjertenaes,         NTNU,                         Norway      (Cholesky decomposition)
  Pi A. B. Haase,           University of Copenhagen,     Denmark     (Triplet AO-SOPPA)
  Maria Francesca Iozzi,    University of Oslo,           Norway      (RPA)
  Christoph Jacob           TU Braunschweig               Germany     (Frozen density embedding)
  Brano Jansik              Technical Univ. of Ostrava    Czech Rep.  (DFT cubic response)
  Hans Joergen Aa. Jensen,  Univ. of Southern Denmark,    Denmark     (DALTON; SIRIUS, RESPONS, ABACUS, MC-srDFT, and much more)
  Dan Jonsson,              UiT The Arctic U. of Norway,  Norway      (Cubic response in RESPONS module)
  Poul Joergensen,          Aarhus University,            Denmark     (RESPONS, ABACUS, and CC modules)
  Maciej Kaminski,          University of Warsaw,         Poland      (CPPh in RESPONS)
  Joanna Kauczor,           Linkoeping University,        Sweden      (Complex polarization propagator (CPP) module)
  Sheela Kirpekar,          Univ. of Southern Denmark,    Denmark     (Mass-velocity & Darwin integrals)
  Erik Kjellgren,           Univ. of Southern Denmark,    Denmark     (MC-srDFT)
  Wim Klopper,              KIT Karlsruhe,                Germany     (R12 code in CC, SIRIUS, and ABACUS modules)
  Stefan Knecht,            ETH Zurich,                   Switzerland (Parallel CI and MCSCF, MC-srDFT)
  Rika Kobayashi,           Australian National Univ.,    Australia   (DIIS in CC, London in MCSCF)
  Henrik Koch,              NTNU,                         Norway      (CC module, Cholesky decomposition)
  Jacob Kongsted,           Univ. of Southern Denmark,    Denmark     (Polarizable embedding, polarizable density embedding, QM/MM)
  Andrea Ligabue,           University of Modena,         Italy       (CTOCD, AOSOPPA)
  Nanna H. List             Univ. of Southern Denmark,    Denmark     (Polarizable embedding)
  Ola B. Lutnaes,           University of Oslo,           Norway      (DFT Hessian)
  Juan I. Melo,             University of Buenos Aires,   Argentina   (LRESC, Relativistic Effects on NMR Shieldings)
  Kurt V. Mikkelsen,        University of Copenhagen,     Denmark     (MC-SCRF and QM/MM)
  Rolf H. Myhre,            NTNU,                         Norway      (Subsystems and CC3)
  Christian Neiss,          Univ. Erlangen-Nuernberg,     Germany     (CCSD(R12))
  Christian B. Nielsen,     University of Copenhagen,     Denmark     (QM/MM)
  Patrick Norman,           KTH Stockholm,                Sweden      (Cubic response and complex frequency response in RESPONS)
  Jeppe Olsen,              Aarhus University,            Denmark     (SIRIUS CI/density modules)
  Jogvan Magnus H. Olsen,   Aarhus University,            Denmark     (Polarizable embedding and polarizable density embedding)
  Anders Osted,             Copenhagen University,        Denmark     (QM/MM)
  Martin J. Packer,         University of Sheffield,      UK          (SOPPA)
  Filip Pawlowski,          Kazimierz Wielki University,  Poland      (CC3)
  Morten N. Pedersen,       Univ. of Southern Denmark,    Denmark     (Polarizable embedding)
  Thomas B. Pedersen,       University of Oslo,           Norway      (Cholesky decomposition)
  Patricio F. Provasi,      University of Northeastern,   Argentina   (Analysis of coupling constants in localized orbitals)
  Peter Reinholdt,          Univ. of Southern Denmark,    Denmark     (Polarizable embedding and polarizable density embedding)
  Zilvinas Rinkevicius,     KTH Stockholm,                Sweden      (open-shell DFT, ESR)
  Elias Rudberg,            KTH Stockholm,                Sweden      (DFT grid and basis info)
  Torgeir A. Ruden,         University of Oslo,           Norway      (Numerical derivatives in ABACUS)
  Kenneth Ruud,             UiT The Arctic U. of Norway,  Norway      (DALTON; ABACUS magnetic properties and much more)
  Pawel Salek,              KTH Stockholm,                Sweden      (DALTON; DFT code)
  Claire C. M. Samson       University of Karlsruhe       Germany     (Boys localization, r12 integrals in ERI)
  Alfredo Sanchez de Meras, University of Valencia,       Spain       (CC module, Cholesky decomposition)
  Trond Saue,               Paul Sabatier University,     France      (direct Fock matrix construction)
  Stephan P. A. Sauer,      University of Copenhagen,     Denmark     (SOPPA(CCSD), SOPPA prop., AOSOPPA, vibrational g-factors)
  Bernd Schimmelpfennig,    Forschungszentrum Karlsruhe,  Germany     (AMFI module)
  Anna K. Schnack-Petersen, University of Copenhagen,     Denmark     (RPA(D) and HRPA(D) properties in AOSOPPA)
  Kristian Sneskov,         Aarhus University,            Denmark     (Polarizable embedding, QM/MM)
  Arnfinn H. Steindal,      UiT The Arctic U. of Norway,  Norway      (parallel QM/MM, polarizable embedding)
  Casper Steinmann,         Aalborg University,           Denmark     (QFIT, polarizable embedding)
  K. O. Sylvester-Hvid,     University of Copenhagen,     Denmark     (MC-SCRF)
  Peter R. Taylor,          VLSCI/Univ. of Melbourne,     Australia   (Symmetry handling ABACUS, integral transformation)
  Andrew M. Teale,          University of Nottingham,     England     (DFT-AC, DFT-D)
  David P. Tew,             University of Bristol,        England     (CCSD(R12))
  Julien Toulouse,          Sorbonne Univ.,               France      (MC-srDFT)
  Olav Vahtras,             KTH Stockholm,                Sweden      (Triplet response, spin-orbit, ESR, TDDFT, open-shell DFT)
  Lucas Visscher,           Vrije Universiteit Amsterdam, Netherlands (Frozen density embedding)
  David J. Wilson,          La Trobe University,          Australia   (DFT Hessian and DFT magnetizabilities)
  Hans Agren,               KTH Stockholm,                Sweden      (SIRIUS module, RESPONS, MC-SCRF solvation)
 --------------------------------------------------------------------------------

     Date and time (Linux)  : Wed Jan 11 14:16:38 2023
     Host name              : cn023                                   

 * Work memory size             :    64000000 =  488.28 megabytes.

 * Directories for basis set searches:
   1) /gpfs/projects/rjh/adrian/fd_compare/dalton/hf/CO/dipole
   2) /gpfs/projects/rjh/adrian/dalton/build/basis


Compilation information
-----------------------

 Who compiled             | ahurtado
 Host                     | sn-mem
 System                   | Linux-3.10.0-1160.24.1.el7.x86_64
 CMake generator          | Unix Makefiles
 Processor                | x86_64
 64-bit integers          | OFF
 MPI                      | ON
 Fortran compiler         | /gpfs/software/intel/oneAPI/2021_4/mpi/2021.4.0/bi
                          | n/mpif90
 Fortran compiler version | GNU Fortran (GCC) 11.2.0
 C compiler               | /gpfs/software/intel/oneAPI/2021_4/mpi/2021.4.0/bi
                          | n/mpicc
 C compiler version       | gcc (GCC) 11.2.0
 C++ compiler             | /gpfs/software/intel/oneAPI/2021_4/mpi/2021.4.0/bi
                          | n/mpicxx
 C++ compiler version     | unknown
 BLAS                     | /gpfs/software/intel/oneAPI/2021_4/mkl/2021.4.0/li
                          | b/intel64/libmkl_gf_lp64.so;/gpfs/software/intel/o
                          | neAPI/2021_4/mkl/2021.4.0/lib/intel64/libmkl_seque
                          | ntial.so;/gpfs/software/intel/oneAPI/2021_4/mkl/20
                          | 21.4.0/lib/intel64/libmkl_core.so;/usr/lib64/libpt
                          | hread.so;/usr/lib64/libm.so
 LAPACK                   | /gpfs/software/intel/oneAPI/2021_4/mkl/2021.4.0/li
                          | b/intel64/libmkl_lapack95_lp64.a;/gpfs/software/in
                          | tel/oneAPI/2021_4/mkl/2021.4.0/lib/intel64/libmkl_
                          | gf_lp64.so
 Static linking           | OFF
 Last Git revision        | 66052b3af5ea7225e31178bf9a8b031913c72190
 Git branch               | (HEAD detached at Dalton2020.0)
 Configuration time       | 2023-01-11 13:33:37.731835

 * MPI parallel run using 20 processes.


   Content of the .dal input file
 ----------------------------------

**DALTON INPUT
.RUN RESPONSE
.DIRECT
**WAVE FUNCTIONS
.HF
**RESPONSE
*LINEAR
.DIPLEN
.FREQUENCIES
9
0.0 0.0201593125 0.040318625 0.060477937499999995 0.08063725 0.10079656249999999 0.12095587499999999
**END OF DALTON INPUT


   Content of the .mol file
 ----------------------------

BASIS
d-aug-cc-pVTZ
blah
blah
Atomtype=2 Atomic
Charge=6 Atoms=1
C_a 0.000000000000 0.000000000000 0.000000000000
Charge=8 Atoms=1
O_a 0.000000000000 0.000000000000 2.132000000000


       *******************************************************************
       *********** Output from DALTON general input processing ***********
       *******************************************************************

 --------------------------------------------------------------------------------
   Overall default print level:    0
   Print level for DALTON.STAT:    1

    Parallel calculation using MPI
    AO-direct calculation (in sections where implemented)
    HERMIT 1- and 2-electron integral sections will be executed
    "Old" integral transformation used (limited to max 255 basis functions)
    Wave function sections will be executed (SIRIUS module)
    Dynamic molecular response properties section will be executed (RESPONSE module)
 --------------------------------------------------------------------------------


   ****************************************************************************
   *************** Output of molecule and basis set information ***************
   ****************************************************************************


    The two title cards from your ".mol" input:
    ------------------------------------------------------------------------
 1: blah                                                                    
 2: blah                                                                    
    ------------------------------------------------------------------------

  Atomic type no.    1
  --------------------
  Nuclear charge:   6.00000
  Number of symmetry independent centers:    1
  Number of basis sets to read;    2
  Basis set file used for this atomic type with Z =   6 :
     "/gpfs/projects/rjh/adrian/dalton/build/basis/aug-cc-pVTZ"

  Atomic type no.    2
  --------------------
  Nuclear charge:   8.00000
  Number of symmetry independent centers:    1
  Number of basis sets to read;    2
  Basis set file used for this atomic type with Z =   8 :
     "/gpfs/projects/rjh/adrian/dalton/build/basis/aug-cc-pVTZ"


                      SYMADD: Requested addition of symmetry
                      --------------------------------------

 Symmetry test threshold:  5.00E-06

@   The molecule is centered at center of mass and rotated
@   so principal axes of inertia are along coordinate axes.

 Symmetry class found: C(oo,v)        

 Symmetry Independent Centres             
 ----------------------------
O_a    8 :      0.00000000     0.00000000     0.91388025  Isotope  1
C_a    6 :      0.00000000     0.00000000    -1.21811975  Isotope  1

 The following symmetry elements were found:   X  Y     


                         SYMGRP: Point group information
                         -------------------------------

@    Full point group is: C(oo,v)        
@    Represented as:      C2v

@  * The irrep name for each symmetry:    1: A1     2: B1     3: B2     4: A2 

   * The point group was generated by:

      Reflection in the yz-plane
      Reflection in the xz-plane

   * Group multiplication table

        |  E   C2z  Oxz  Oyz
   -----+--------------------
     E  |  E   C2z  Oxz  Oyz
    C2z | C2z   E   Oyz  Oxz
    Oxz | Oxz  Oyz   E   C2z
    Oyz | Oyz  Oxz  C2z   E 

   * Character table

        |  E   C2z  Oxz  Oyz
   -----+--------------------
    A1  |   1    1    1    1
    B1  |   1   -1    1   -1
    B2  |   1   -1   -1    1
    A2  |   1    1   -1   -1

   * Direct product table

        | A1   B1   B2   A2 
   -----+--------------------
    A1  | A1   B1   B2   A2 
    B1  | B1   A1   A2   B2 
    B2  | B2   A2   A1   B1 
    A2  | A2   B2   B1   A1 


                                 Isotopic Masses
                                 ---------------

                           C_a        12.000000
                           O_a        15.994915

                       Total mass:    27.994915 amu
                       Natural abundance:  98.663 %

 Center-of-mass coordinates (a.u.):    0.000000    0.000000    0.000000
 Center-of-mass coordinates (Angs):    0.000000    0.000000    0.000000


  Atoms and basis sets
  --------------------

  Number of atom types :    2
  Total number of atoms:    2

  Basis set used is "d-aug-cc-pVTZ" from the basis set library.

  label    atoms   charge   prim   cont     basis
  ----------------------------------------------------------------------
  C_          1    6.0000    74    62      [12s7p4d3f|6s5p4d3f]                               
  O_          1    8.0000    74    62      [12s7p4d3f|6s5p4d3f]                               
  ----------------------------------------------------------------------
  total:      2   14.0000   148   124
  ----------------------------------------------------------------------
  Spherical harmonic basis used.

  Threshold for neglecting AO integrals:  1.00D-12


  Cartesian Coordinates (a.u.)
  ----------------------------

  Total number of coordinates:    6
  C_a     :     1  x   0.0000000000    2  y   0.0000000000    3  z  -1.2181197471
  O_a     :     4  x   0.0000000000    5  y   0.0000000000    6  z   0.9138802529


  Symmetry Coordinates
  --------------------

  Number of coordinates in each symmetry:     2    2    2    0

  Symmetry  A1  ( 1)

    1   C_a   z    3
    2   O_a   z    6

  Symmetry  B1  ( 2)

    3   C_a   x    1
    4   O_a   x    4

  Symmetry  B2  ( 3)

    5   C_a   y    2
    6   O_a   y    5


   Interatomic separations (in Angstrom):
   --------------------------------------

            C_a         O_a   
            ------      ------
 C_a   :    0.000000
 O_a   :    1.128206    0.000000


  Max    interatomic separation is    1.1282 Angstrom (    2.1320 Bohr)
  between atoms    2 and    1, "O_a   " and "C_a   ".

  Min YX interatomic separation is    1.1282 Angstrom (    2.1320 Bohr)


  Bond distances (Angstrom):
  --------------------------

                  atom 1     atom 2       distance
                  ------     ------       --------
  bond distance:  O_a        C_a          1.128206




 Principal moments of inertia (u*A**2) and principal axes
 --------------------------------------------------------

   IA       0.000000          0.000000    0.000000    1.000000
   IB       8.726914          0.000000    1.000000    0.000000
   IC       8.726914          1.000000    0.000000    0.000000


 Rotational constants
 --------------------

@    The molecule is linear.

               B =        57910.39 MHz     (    1.931683 cm-1)


@  Nuclear repulsion energy :   22.514071294559 Hartree


  Symmetry Orbitals
  -----------------

  Number of orbitals in each symmetry:          50   30   30   14


  Symmetry  A1 ( 1)

    1     C_a      1s         1
    2     C_a      1s         2
    3     C_a      1s         3
    4     C_a      1s         4
    5     C_a      1s         5
    6     C_a      1s         6
    7     C_a      2pz        9
    8     C_a      2pz       12
    9     C_a      2pz       15
   10     C_a      2pz       18
   11     C_a      2pz       21
   12     C_a      3d0       24
   13     C_a      3d2+      26
   14     C_a      3d0       29
   15     C_a      3d2+      31
   16     C_a      3d0       34
   17     C_a      3d2+      36
   18     C_a      3d0       39
   19     C_a      3d2+      41
   20     C_a      4f0       45
   21     C_a      4f2+      47
   22     C_a      4f0       52
   23     C_a      4f2+      54
   24     C_a      4f0       59
   25     C_a      4f2+      61
   26     O_a      1s        63
   27     O_a      1s        64
   28     O_a      1s        65
   29     O_a      1s        66
   30     O_a      1s        67
   31     O_a      1s        68
   32     O_a      2pz       71
   33     O_a      2pz       74
   34     O_a      2pz       77
   35     O_a      2pz       80
   36     O_a      2pz       83
   37     O_a      3d0       86
   38     O_a      3d2+      88
   39     O_a      3d0       91
   40     O_a      3d2+      93
   41     O_a      3d0       96
   42     O_a      3d2+      98
   43     O_a      3d0      101
   44     O_a      3d2+     103
   45     O_a      4f0      107
   46     O_a      4f2+     109
   47     O_a      4f0      114
   48     O_a      4f2+     116
   49     O_a      4f0      121
   50     O_a      4f2+     123


  Symmetry  B1 ( 2)

   51     C_a      2px        7
   52     C_a      2px       10
   53     C_a      2px       13
   54     C_a      2px       16
   55     C_a      2px       19
   56     C_a      3d1+      25
   57     C_a      3d1+      30
   58     C_a      3d1+      35
   59     C_a      3d1+      40
   60     C_a      4f1+      46
   61     C_a      4f3+      48
   62     C_a      4f1+      53
   63     C_a      4f3+      55
   64     C_a      4f1+      60
   65     C_a      4f3+      62
   66     O_a      2px       69
   67     O_a      2px       72
   68     O_a      2px       75
   69     O_a      2px       78
   70     O_a      2px       81
   71     O_a      3d1+      87
   72     O_a      3d1+      92
   73     O_a      3d1+      97
   74     O_a      3d1+     102
   75     O_a      4f1+     108
   76     O_a      4f3+     110
   77     O_a      4f1+     115
   78     O_a      4f3+     117
   79     O_a      4f1+     122
   80     O_a      4f3+     124


  Symmetry  B2 ( 3)

   81     C_a      2py        8
   82     C_a      2py       11
   83     C_a      2py       14
   84     C_a      2py       17
   85     C_a      2py       20
   86     C_a      3d1-      23
   87     C_a      3d1-      28
   88     C_a      3d1-      33
   89     C_a      3d1-      38
   90     C_a      4f3-      42
   91     C_a      4f1-      44
   92     C_a      4f3-      49
   93     C_a      4f1-      51
   94     C_a      4f3-      56
   95     C_a      4f1-      58
   96     O_a      2py       70
   97     O_a      2py       73
   98     O_a      2py       76
   99     O_a      2py       79
  100     O_a      2py       82
  101     O_a      3d1-      85
  102     O_a      3d1-      90
  103     O_a      3d1-      95
  104     O_a      3d1-     100
  105     O_a      4f3-     104
  106     O_a      4f1-     106
  107     O_a      4f3-     111
  108     O_a      4f1-     113
  109     O_a      4f3-     118
  110     O_a      4f1-     120


  Symmetry  A2 ( 4)

  111     C_a      3d2-      22
  112     C_a      3d2-      27
  113     C_a      3d2-      32
  114     C_a      3d2-      37
  115     C_a      4f2-      43
  116     C_a      4f2-      50
  117     C_a      4f2-      57
  118     O_a      3d2-      84
  119     O_a      3d2-      89
  120     O_a      3d2-      94
  121     O_a      3d2-      99
  122     O_a      4f2-     105
  123     O_a      4f2-     112
  124     O_a      4f2-     119

  Symmetries of electric field:  B1 (2)  B2 (3)  A1 (1)

  Symmetries of magnetic field:  B2 (3)  B1 (2)  A2 (4)


                     .---------------------------------------.
                     | Starting in Integral Section (HERMIT) |
                     `---------------------------------------'



 ***************************************************************************************
 ****************** Output from **INTEGRALS input processing (HERMIT) ******************
 ***************************************************************************************


 - Using defaults, no **INTEGRALS input found

 Default print level:        1

 Calculation of one-electron Hamiltonian integrals.

 Center of mass  (bohr):      0.000000000000      0.000000000000      0.000000000000
 Operator center (bohr):      0.000000000000      0.000000000000      0.000000000000
 Gauge origin    (bohr):      0.000000000000      0.000000000000      0.000000000000
 Dipole origin   (bohr):      0.000000000000      0.000000000000      0.000000000000


     ************************************************************************
     ************************** Output from HERINT **************************
     ************************************************************************



                      Nuclear contribution to dipole moments
                      --------------------------------------

                 au               Debye          C m (/(10**-30)

      z      0.00232354         0.00590585         0.01969980


  Total CPU  time used in HERMIT:   0.18 seconds
  Total wall time used in HERMIT:   0.19 seconds


                        .----------------------------------.
                        | End of Integral Section (HERMIT) |
                        `----------------------------------'



                   .--------------------------------------------.
                   | Starting in Wave Function Section (SIRIUS) |
                   `--------------------------------------------'


 *** Output from Huckel module :

     Using EWMO model:          T
     Using EHT  model:          F
     Number of Huckel orbitals each symmetry:    6    2    2    0

 EWMO - Energy Weighted Maximum Overlap - is a Huckel type method,
        which normally is better than Extended Huckel Theory.
 Reference: Linderberg and Ohrn, Propagators in Quantum Chemistry (Wiley, 1973)

 Huckel EWMO eigenvalues for symmetry :  1
          -20.685999     -11.349525      -1.578830      -0.796795      -0.456115
           -0.137637

 Huckel EWMO eigenvalues for symmetry :  2
           -0.717188      -0.305912

 Huckel EWMO eigenvalues for symmetry :  3
           -0.717188      -0.305912

 **********************************************************************
 *SIRIUS* a direct, restricted step, second order MCSCF program       *
 **********************************************************************

 
     Date and time (Linux)  : Wed Jan 11 14:16:39 2023
     Host name              : cn023                                   

 Title lines from ".mol" input file:
     blah                                                                    
     blah                                                                    

 Print level on unit LUPRI =   2 is   0
 Print level on unit LUW4  =   2 is   5

@    Restricted, closed shell Hartree-Fock calculation.

@    Time-dependent Hartree-Fock calculation (random phase approximation).
 Fock matrices are calculated directly and in parallel without use of integrals on disk.

 Initial molecular orbitals are obtained according to
 ".MOSTART EWMO  " input option

     Wave function specification
     ============================
@    Wave function type        --- HF ---
@    Number of closed shell electrons          14
@    Number of electrons in active shells       0
@    Total charge of the molecule               0

@    Spin multiplicity and 2 M_S                1         0
@    Total number of symmetries                 4 (point group: C2v)
@    Reference state symmetry                   1 (irrep name : A1 )

     Orbital specifications
     ======================
@    Abelian symmetry species          All |    1    2    3    4
@                                          |  A1   B1   B2   A2 
                                       --- |  ---  ---  ---  ---
@    Total number of orbitals          124 |   50   30   30   14
@    Number of basis functions         124 |   50   30   30   14

      ** Automatic occupation of RHF orbitals **

      -- Initial occupation of symmetries is determined from extended Huckel guess.           
      -- Initial occupation of symmetries is :
@    Occupied SCF orbitals               7 |    5    1    1    0

     Maximum number of Fock   iterations      0
     Maximum number of DIIS   iterations     60
     Maximum number of QC-SCF iterations     60
     Threshold for SCF convergence     1.00D-05


 ***********************************************
 ***** DIIS acceleration of SCF iterations *****
 ***********************************************

 C1-DIIS algorithm; max error vectors =    8

 Automatic occupation of symmetries with  14 electrons.

 Iter     Total energy    Error norm  Delta(E)    SCF occupation
 -----------------------------------------------------------------------------
   1  Screening settings (-IFTHRS, JTDIIS, DIFDEN, times)   -7    1    T  1.89D-01  1.89D-01
@  1  -112.497714193       2.32D+00  -1.12D+02     5   1   1   0
      Virial theorem: -V/T =      2.006201
@    MULPOP   C_a     0.35; O_a    -0.35; 
   1  Level shift: doubly occupied orbital energies shifted by -2.00D-01
 -----------------------------------------------------------------------------
   2  Screening settings (-IFTHRS, JTDIIS, DIFDEN, times)   -7    2    T  1.64D-01  1.64D-01
@  2  -112.767611774       4.97D-01  -2.70D-01     5   1   1   0
      Virial theorem: -V/T =      1.998816
@    MULPOP   C_a     0.17; O_a    -0.17; 
   2  Level shift: doubly occupied orbital energies shifted by -5.00D-02
 -----------------------------------------------------------------------------
   3  Screening settings (-IFTHRS, JTDIIS, DIFDEN, times)   -7    3    T  1.63D-01  1.63D-01
@  3  -112.780265275       1.26D-01  -1.27D-02     5   1   1   0
      Virial theorem: -V/T =      2.001244
@    MULPOP   C_a     0.20; O_a    -0.20; 
   3  Level shift: doubly occupied orbital energies shifted by -2.50D-02
 -----------------------------------------------------------------------------
   4  Screening settings (-IFTHRS, JTDIIS, DIFDEN, times)  -11    4    F  1.54D-01  1.55D-01
@  4  -112.781470382       6.37D-02  -1.21D-03     5   1   1   0
      Virial theorem: -V/T =      2.002235
@    MULPOP   C_a     0.17; O_a    -0.17; 
   4  Level shift: doubly occupied orbital energies shifted by -2.50D-02
 -----------------------------------------------------------------------------
   5  Screening settings (-IFTHRS, JTDIIS, DIFDEN, times)  -11    5    T  1.41D-01  1.40D-01
@  5  -112.781669946       1.66D-02  -2.00D-04     5   1   1   0
      Virial theorem: -V/T =      2.001584
@    MULPOP   C_a     0.19; O_a    -0.19; 
   5  Level shift: doubly occupied orbital energies shifted by -1.25D-02
 -----------------------------------------------------------------------------
   6  Screening settings (-IFTHRS, JTDIIS, DIFDEN, times)  -11    6    T  1.40D-01  1.40D-01
@  6  -112.781689636       3.35D-03  -1.97D-05     5   1   1   0
      Virial theorem: -V/T =      2.001707
@    MULPOP   C_a     0.18; O_a    -0.18; 
 -----------------------------------------------------------------------------
   7  Screening settings (-IFTHRS, JTDIIS, DIFDEN, times)  -11    7    T  1.43D-01  1.42D-01
@  7  -112.781690560       4.77D-04  -9.23D-07     5   1   1   0
      Virial theorem: -V/T =      2.001720
@    MULPOP   C_a     0.18; O_a    -0.18; 
 -----------------------------------------------------------------------------
   8  Screening settings (-IFTHRS, JTDIIS, DIFDEN, times)  -11    8    T  1.39D-01  1.39D-01
@  8  -112.781690584       1.02D-04  -2.48D-08     5   1   1   0
      Virial theorem: -V/T =      2.001721
@    MULPOP   C_a     0.18; O_a    -0.18; 
 -----------------------------------------------------------------------------
   9  Screening settings (-IFTHRS, JTDIIS, DIFDEN, times)  -11    9    T  1.36D-01  1.36D-01
@  9  -112.781690586       1.05D-05  -1.14D-09     5   1   1   0
      Virial theorem: -V/T =      2.001721
@    MULPOP   C_a     0.18; O_a    -0.18; 
 -----------------------------------------------------------------------------
  10  Screening settings (-IFTHRS, JTDIIS, DIFDEN, times)  -11   10    T  1.38D-01  1.38D-01
@ 10  -112.781690586       2.96D-06  -1.52D-11     5   1   1   0

@ *** DIIS converged in  10 iterations !
@     Converged SCF energy, gradient:   -112.781690585581    2.96D-06
    - total time used in SIRFCK :              0.00 seconds


 *** SCF orbital energy analysis ***

 Only the 20 lowest virtual orbital energies printed in each symmetry.

 Number of electrons :   14
 Orbital occupations :    5    1    1    0

 Sym       Hartree-Fock orbital energies

1 A1    -20.66798122   -11.36176310    -1.52294369    -0.80479279    -0.55482988
          0.01748428     0.02180091     0.05452336     0.07397306     0.09655919
          0.10712400     0.13638492     0.19389950     0.24504967     0.25519608
          0.31204768     0.36761512     0.37014232     0.44897935     0.49371723
          0.52135809     0.68720965     0.76230614     0.82872585     0.84308439

2 B1     -0.64040214     0.02048699     0.05444335     0.08686271     0.13422977
          0.16208902     0.25325765     0.33295053     0.38844979     0.41597476
          0.53166633     0.67223081     0.83937526     0.84055317     1.14992406
          1.19552734     1.27618640     1.48141571     1.62144868     2.41672191
          2.43164920

3 B2     -0.64040214     0.02048699     0.05444335     0.08686271     0.13422977
          0.16208902     0.25325765     0.33295053     0.38844979     0.41597476
          0.53166633     0.67223081     0.83937526     0.84055317     1.14992406
          1.19552734     1.27618640     1.48141571     1.62144868     2.41672191
          2.43164920

4 A2      0.09655919     0.25519608     0.37014232     0.49371723     0.82872585
          0.91753748     1.25608523     1.57555368     2.31564825     2.63347037
          3.54419576     3.92776380     6.78329430     7.13465306

    E(LUMO) :     0.01748428 au (symmetry 1)
  - E(HOMO) :    -0.55482988 au (symmetry 1)
  ------------------------------------------
    gap     :     0.57231416 au

 --- Writing SIRIFC interface file

 CPU and wall time for SCF :       1.536       1.542


                       .-----------------------------------.
                       | --- Final results from SIRIUS --- |
                       `-----------------------------------'


@    Spin multiplicity:           1
@    Spatial symmetry:            1 ( irrep  A1  in C2v )
@    Total charge of molecule:    0

@    Final HF energy:            -112.781690585581                 
@    Nuclear repulsion:            22.514071294559
@    Electronic energy:          -135.295761880140

@    Final gradient norm:           0.000002962405

 
     Date and time (Linux)  : Wed Jan 11 14:16:40 2023
     Host name              : cn023                                   

File label for MO orbitals:  11Jan23   FOCKDIIS

 (Only coefficients > 0.0100 are printed.)

 Molecular orbitals for symmetry species 1  (A1 )
 ------------------------------------------------

    Orbital         1        2        3        4        5        6        7
   1 C_a :1s     0.0003   1.0000  -0.0156  -0.0022   0.0042   0.0023  -0.0022
   2 C_a :1s     0.0013   0.0024   0.4326   0.5707   0.6182  -0.0397  -0.0283
   4 C_a :1s    -0.0012   0.0062  -0.1012  -0.0703   0.1698   0.8465  -0.1478
   5 C_a :1s     0.0002   0.0034   0.0185  -0.0029   0.0282   3.7612  -0.8520
   6 C_a :1s     0.0001   0.0005   0.0037  -0.0040  -0.0046   5.0367  -1.1391
   7 C_a :2pz    0.0012   0.0089   0.3356   0.1967  -0.7052   0.0408   0.0098
   8 C_a :2pz    0.0007  -0.0040  -0.0502  -0.0217   0.0551   0.0700  -0.0134
   9 C_a :2pz   -0.0015  -0.0035  -0.1519  -0.0726   0.1333   0.5405  -0.1208
  10 C_a :2pz   -0.0004  -0.0010  -0.0203  -0.0052  -0.0157   1.1648  -0.5339
  11 C_a :2pz   -0.0000  -0.0000  -0.0000  -0.0003  -0.0028   0.0322  -2.0255
  12 C_a :3d0    0.0002   0.0015   0.0257   0.0153  -0.0205   0.0025   0.0008
  14 C_a :3d0    0.0007  -0.0007   0.0122   0.0108  -0.0138   0.0506  -0.0097
  16 C_a :3d0   -0.0007  -0.0009  -0.0170   0.0058  -0.0004   0.1347   0.0009
  18 C_a :3d0   -0.0001  -0.0005  -0.0056  -0.0010  -0.0058   0.0080  -0.2914
  22 C_a :4f0    0.0004  -0.0006  -0.0031  -0.0042   0.0034   0.0113   0.0061
  24 C_a :4f0   -0.0003  -0.0001   0.0009   0.0082  -0.0032   0.0114  -0.0121
  26 O_a :1s     0.9985  -0.0001  -0.0089  -0.0057  -0.0010   0.0002   0.0005
  27 O_a :1s    -0.0035   0.0022   0.8212  -0.4784  -0.0672  -0.0221   0.0202
  29 O_a :1s     0.0033  -0.0020  -0.0974  -0.1705   0.0365  -0.3637   0.0561
  30 O_a :1s    -0.0002  -0.0068  -0.0375  -0.0496   0.0197  -2.3280   0.6236
  31 O_a :1s    -0.0003  -0.0021  -0.0193   0.0074   0.0030  -6.2427   1.9510
  32 O_a :2pz   -0.0043  -0.0017  -0.2382  -0.7362   0.3787  -0.0314   0.0045
  33 O_a :2pz    0.0035   0.0010   0.0034   0.0229  -0.0073   0.0196  -0.0029
  34 O_a :2pz    0.0010   0.0040   0.1125   0.1064  -0.0479   0.1872  -0.0450
  35 O_a :2pz    0.0009   0.0050   0.0589   0.0094   0.0184   0.7447  -0.0500
  36 O_a :2pz    0.0001   0.0005   0.0058  -0.0002   0.0054   1.1149   1.0141
  37 O_a :3d0    0.0003   0.0003   0.0094   0.0106  -0.0062   0.0005  -0.0001
  39 O_a :3d0   -0.0005  -0.0013   0.0198   0.0192  -0.0134  -0.0117   0.0026
  41 O_a :3d0    0.0002  -0.0010  -0.0325  -0.0096   0.0160  -0.0131   0.0005
  43 O_a :3d0   -0.0000  -0.0011  -0.0179  -0.0092  -0.0022  -0.0670  -0.0048
  49 O_a :4f0   -0.0001  -0.0001   0.0112   0.0054  -0.0073  -0.0035   0.0079

    Orbital         8        9       10       11       12       13       14
   1 C_a :1s     0.0085  -0.0114   0.0000   0.0032   0.0221   0.0205  -0.0387
   2 C_a :1s     0.0886  -0.1097  -0.0000  -0.0676  -0.0289  -0.0767  -0.2333
   3 C_a :1s     0.0094   0.0054  -0.0000   0.0059   0.0377  -0.0110  -0.0540
   4 C_a :1s     0.5427  -2.1109   0.0000  -1.0462   1.0570   4.4705  -2.2385
   5 C_a :1s     1.2020  -9.5879   0.0000  -4.4168   0.3636  18.5393  -4.7667
   6 C_a :1s    -0.6566  -7.6592  -0.0000  -2.3511  -2.1056   6.8787  -1.2630
   7 C_a :2pz   -0.0292   0.0895  -0.0000   0.0781   0.0553   0.1080  -0.0368
   8 C_a :2pz   -0.0015  -0.1634   0.0000  -0.1242  -0.0057   0.3084  -0.1772
   9 C_a :2pz   -0.4118  -1.1942   0.0000  -1.0964  -1.3329   2.2063  -0.2926
  10 C_a :2pz   -2.1444  -2.7009  -0.0000  -2.5423  -6.0826   3.8880   1.1542
  11 C_a :2pz   -2.2451  -0.9559  -0.0000   0.7285  -1.7330   0.5577  -0.0273
  14 C_a :3d0   -0.0338  -0.1219   0.0000  -0.0775  -0.1228   0.1916   0.0021
  15 C_a :3d2+   0.0000   0.0000   0.0148  -0.0000  -0.0000   0.0000  -0.0000
  16 C_a :3d0   -0.2216  -0.2537   0.0000  -0.4846  -0.8529   0.2792   0.8653
  17 C_a :3d2+   0.0000   0.0000   0.0878  -0.0000  -0.0000   0.0000  -0.0000
  18 C_a :3d0   -0.7731  -0.3678  -0.0000   0.7636  -2.6664   0.4599   1.2859
  19 C_a :3d2+   0.0000  -0.0000   1.2617  -0.0000  -0.0000  -0.0000  -0.0000
  20 C_a :4f0   -0.0034  -0.0099   0.0000  -0.0012  -0.0116   0.0155   0.0004
  22 C_a :4f0   -0.0109  -0.0162   0.0000  -0.0563  -0.0415   0.0052   0.0432
  23 C_a :4f2+   0.0000   0.0000  -0.0324  -0.0000  -0.0000   0.0000  -0.0000
  24 C_a :4f0   -0.0270  -0.0390   0.0000   0.0472  -0.2063   0.1087   0.4967
  25 C_a :4f2+   0.0000   0.0000   0.1797  -0.0000  -0.0000   0.0000  -0.0000
  27 O_a :1s    -0.0198  -0.0842   0.0000   0.0300   0.0579  -0.1393   0.0202
  29 O_a :1s     0.2639   0.6917  -0.0000   0.8205   0.9721  -1.3172  -0.1403
  30 O_a :1s     0.3950   5.4542  -0.0000   3.2898   2.4129 -11.9255   2.8757
  31 O_a :1s     0.0683  13.8602   0.0000   4.3722   1.2568 -16.2120   4.0339
  32 O_a :2pz   -0.0004  -0.0483  -0.0000  -0.0217   0.0330  -0.0771   0.0841
  33 O_a :2pz   -0.0212  -0.0377   0.0000  -0.0455  -0.0702   0.0601   0.0230
  34 O_a :2pz    0.0384  -0.4517   0.0000  -0.2282   0.1287   0.9205  -0.6692
  35 O_a :2pz    1.4901  -1.9539   0.0000  -0.2371   4.2531   4.8987  -4.5114
  36 O_a :2pz    3.8564  -0.9092   0.0000  -0.8820   3.8320   1.3324  -0.6273
  39 O_a :3d0    0.0036   0.0253   0.0000   0.0178   0.0095  -0.0562  -0.0097
  41 O_a :3d0   -0.0449   0.0288   0.0000  -0.0028  -0.1985  -0.0982   0.3163
  42 O_a :3d2+  -0.0000  -0.0000   0.0299   0.0000   0.0000  -0.0000   0.0000
  43 O_a :3d0   -0.4885   0.2001  -0.0000  -0.3835  -0.9283  -0.9803  -0.8878
  44 O_a :3d2+  -0.0000  -0.0000  -0.5025   0.0000   0.0000  -0.0000   0.0000
  47 O_a :4f0   -0.0021  -0.0021  -0.0000  -0.0061   0.0125   0.0001  -0.0573
  48 O_a :4f2+   0.0000   0.0000  -0.0102  -0.0000  -0.0000   0.0000  -0.0000
  49 O_a :4f0    0.0465   0.0145  -0.0000   0.0315   0.0742   0.0203   0.1628
  50 O_a :4f2+   0.0000   0.0000   0.0280  -0.0000  -0.0000   0.0000  -0.0000

    Orbital        15
  15 C_a :3d2+  -0.0148
  17 C_a :3d2+  -1.2338
  19 C_a :3d2+  -0.9541
  23 C_a :4f2+  -0.0199
  25 C_a :4f2+  -0.6568
  42 O_a :3d2+   0.1167
  44 O_a :3d2+   2.6572
  48 O_a :4f2+   0.0434
  50 O_a :4f2+  -0.3176

 Molecular orbitals for symmetry species 2  (B1 )
 ------------------------------------------------

    Orbital         1        2        3        4        5        6        7
   1 C_a :2px   -0.4425  -0.0154   0.0042  -0.2512  -0.0328   0.6222  -0.0449
   2 C_a :2px    0.0253  -0.0027  -0.0429  -0.0446  -0.1169  -0.0801   0.2237
   3 C_a :2px    0.0921  -0.0557  -0.5999  -0.6110  -1.3223  -1.0088   1.6611
   4 C_a :2px    0.0098  -0.3851  -2.3382  -1.9029  -5.1692  -2.9806   4.1910
   5 C_a :2px   -0.0009  -2.0266  -2.5364   0.4217  -1.9997  -0.1243   0.2483
   6 C_a :3d1+  -0.0276   0.0019  -0.0008   0.0084   0.0068  -0.0070   0.0114
   7 C_a :3d1+  -0.0356  -0.0017  -0.0682  -0.0238  -0.1654  -0.1411   0.3341
   8 C_a :3d1+   0.0154   0.0116  -0.2062  -0.2529  -0.5438  -0.6111   1.6110
   9 C_a :3d1+   0.0016  -0.2711  -0.7463   0.3686  -2.5611  -0.1621   1.6644
  10 C_a :4f1+  -0.0081  -0.0008  -0.0044   0.0051  -0.0101  -0.0046   0.0155
  12 C_a :4f1+  -0.0042   0.0065  -0.0189  -0.0361  -0.0358  -0.0843   0.1525
  14 C_a :4f1+   0.0105  -0.0115  -0.0180   0.0482  -0.1771   0.0556   0.5222
  16 O_a :2px   -0.7941   0.0421  -0.0603   0.2469   0.1454  -0.3492   0.2000
  17 O_a :2px   -0.0040   0.0006  -0.0054  -0.0042  -0.0037  -0.0176   0.0107
  18 O_a :2px   -0.0029   0.0062   0.2019   0.2750   0.5620   0.3846  -1.1405
  19 O_a :2px   -0.0264   0.2202   1.4780   1.1598   3.8485   2.3506  -5.3641
  20 O_a :2px   -0.0007   1.3926   4.2533   0.3694   4.3131   1.1633  -1.1206
  21 O_a :3d1+   0.0113  -0.0002   0.0014   0.0032   0.0011  -0.0046  -0.0055
  22 O_a :3d1+   0.0322  -0.0006  -0.0077  -0.0027  -0.0258  -0.0405   0.0320
  23 O_a :3d1+   0.0102  -0.0073  -0.1028  -0.0722  -0.2808  -0.2127   0.5611
  24 O_a :3d1+  -0.0064  -0.0280  -0.4270  -0.4089  -0.4811  -1.0836  -0.6024
  27 O_a :4f1+  -0.0046   0.0005   0.0055   0.0032   0.0314   0.0097  -0.0906
  29 O_a :4f1+   0.0035   0.0074   0.0543   0.0307   0.0646   0.1002   0.1005

    Orbital         8        9       10       11
   1 C_a :2px    0.4260  -0.0000   0.2143   0.3281
   2 C_a :2px    0.2504   0.0000   0.1617  -0.0076
   3 C_a :2px    4.1776   0.0000   1.3851   0.1824
   4 C_a :2px    5.8406   0.0000  -0.0330   1.6494
   5 C_a :2px    0.7481   0.0000  -0.6041   0.0404
   6 C_a :3d1+  -0.0124  -0.0000   0.0048   0.0157
   7 C_a :3d1+   0.3555   0.0000   0.1266   0.0136
   8 C_a :3d1+   0.6067   0.0000   1.2828   2.6431
   9 C_a :3d1+   1.3374   0.0000  -0.8379   0.6090
  10 C_a :4f1+   0.0156  -0.0000  -0.0355   0.0091
  11 C_a :4f3+   0.0000  -0.0336   0.0000   0.0000
  12 C_a :4f1+   0.0959   0.0000   0.2618   0.0693
  13 C_a :4f3+  -0.0000   0.1671  -0.0000  -0.0000
  14 C_a :4f1+  -0.2875   0.0000  -0.8792   1.9795
  15 C_a :4f3+  -0.0000  -1.1564  -0.0000  -0.0000
  16 O_a :2px   -0.0661   0.0000  -0.2200  -0.3419
  17 O_a :2px    0.0060  -0.0000  -0.0136   0.1115
  18 O_a :2px   -1.0370  -0.0000  -0.8011  -1.5730
  19 O_a :2px   -7.3193  -0.0000  -0.8294  -1.8246
  20 O_a :2px   -2.3876  -0.0000   0.8627  -0.3468
  22 O_a :3d1+   0.0300  -0.0000   0.0021   0.0623
  23 O_a :3d1+   0.5887   0.0000   0.2935  -0.1764
  24 O_a :3d1+   3.3114   0.0000   0.8860  -1.5575
  27 O_a :4f1+  -0.0139   0.0000  -0.0109  -0.0503
  28 O_a :4f3+   0.0000  -0.0402   0.0000   0.0000
  29 O_a :4f1+  -0.4201   0.0000  -0.0229   0.4083
  30 O_a :4f3+   0.0000   0.1471   0.0000   0.0000

 Molecular orbitals for symmetry species 3  (B2 )
 ------------------------------------------------

    Orbital         1        2        3        4        5        6        7
   1 C_a :2py   -0.4425  -0.0154   0.0042  -0.2512  -0.0328   0.6222  -0.0449
   2 C_a :2py    0.0253  -0.0027  -0.0429  -0.0446  -0.1169  -0.0801   0.2237
   3 C_a :2py    0.0921  -0.0557  -0.5999  -0.6110  -1.3223  -1.0088   1.6611
   4 C_a :2py    0.0098  -0.3851  -2.3382  -1.9029  -5.1692  -2.9806   4.1910
   5 C_a :2py   -0.0009  -2.0266  -2.5364   0.4217  -1.9997  -0.1243   0.2483
   6 C_a :3d1-  -0.0276   0.0019  -0.0008   0.0084   0.0068  -0.0070   0.0114
   7 C_a :3d1-  -0.0356  -0.0017  -0.0682  -0.0238  -0.1654  -0.1411   0.3341
   8 C_a :3d1-   0.0154   0.0116  -0.2062  -0.2529  -0.5438  -0.6111   1.6110
   9 C_a :3d1-   0.0016  -0.2711  -0.7463   0.3686  -2.5611  -0.1621   1.6644
  11 C_a :4f1-  -0.0081  -0.0008  -0.0044   0.0051  -0.0101  -0.0046   0.0155
  13 C_a :4f1-  -0.0042   0.0065  -0.0189  -0.0361  -0.0358  -0.0843   0.1525
  15 C_a :4f1-   0.0105  -0.0115  -0.0180   0.0482  -0.1771   0.0556   0.5222
  16 O_a :2py   -0.7941   0.0421  -0.0603   0.2469   0.1454  -0.3492   0.2000
  17 O_a :2py   -0.0040   0.0006  -0.0054  -0.0042  -0.0037  -0.0176   0.0107
  18 O_a :2py   -0.0029   0.0062   0.2019   0.2750   0.5620   0.3846  -1.1405
  19 O_a :2py   -0.0264   0.2202   1.4780   1.1598   3.8485   2.3506  -5.3641
  20 O_a :2py   -0.0007   1.3926   4.2533   0.3694   4.3131   1.1633  -1.1206
  21 O_a :3d1-   0.0113  -0.0002   0.0014   0.0032   0.0011  -0.0046  -0.0055
  22 O_a :3d1-   0.0322  -0.0006  -0.0077  -0.0027  -0.0258  -0.0405   0.0320
  23 O_a :3d1-   0.0102  -0.0073  -0.1028  -0.0722  -0.2808  -0.2127   0.5611
  24 O_a :3d1-  -0.0064  -0.0280  -0.4270  -0.4089  -0.4811  -1.0836  -0.6024
  28 O_a :4f1-  -0.0046   0.0005   0.0055   0.0032   0.0314   0.0097  -0.0906
  30 O_a :4f1-   0.0035   0.0074   0.0543   0.0307   0.0646   0.1002   0.1005

    Orbital         8        9       10       11
   1 C_a :2py    0.4260   0.0000   0.2143   0.3281
   2 C_a :2py    0.2504  -0.0000   0.1617  -0.0076
   3 C_a :2py    4.1776  -0.0000   1.3851   0.1824
   4 C_a :2py    5.8406  -0.0000  -0.0330   1.6494
   5 C_a :2py    0.7481  -0.0000  -0.6041   0.0404
   6 C_a :3d1-  -0.0124   0.0000   0.0048   0.0157
   7 C_a :3d1-   0.3555  -0.0000   0.1266   0.0136
   8 C_a :3d1-   0.6067  -0.0000   1.2828   2.6431
   9 C_a :3d1-   1.3374  -0.0000  -0.8379   0.6090
  10 C_a :4f3-  -0.0000  -0.0336  -0.0000  -0.0000
  11 C_a :4f1-   0.0156   0.0000  -0.0355   0.0091
  12 C_a :4f3-   0.0000   0.1671   0.0000   0.0000
  13 C_a :4f1-   0.0959  -0.0000   0.2618   0.0693
  14 C_a :4f3-   0.0000  -1.1564   0.0000   0.0000
  15 C_a :4f1-  -0.2875  -0.0000  -0.8792   1.9795
  16 O_a :2py   -0.0661  -0.0000  -0.2200  -0.3419
  17 O_a :2py    0.0060   0.0000  -0.0136   0.1115
  18 O_a :2py   -1.0370   0.0000  -0.8011  -1.5730
  19 O_a :2py   -7.3193   0.0000  -0.8294  -1.8246
  20 O_a :2py   -2.3876   0.0000   0.8627  -0.3468
  22 O_a :3d1-   0.0300   0.0000   0.0021   0.0623
  23 O_a :3d1-   0.5887  -0.0000   0.2935  -0.1764
  24 O_a :3d1-   3.3114  -0.0000   0.8860  -1.5575
  27 O_a :4f3-  -0.0000  -0.0402  -0.0000  -0.0000
  28 O_a :4f1-  -0.0139  -0.0000  -0.0109  -0.0503
  29 O_a :4f3-  -0.0000   0.1471  -0.0000  -0.0000
  30 O_a :4f1-  -0.4201  -0.0000  -0.0229   0.4083

 Molecular orbitals for symmetry species 4  (A2 )
 ------------------------------------------------

    Orbital         1        2        3        4        5        6        7
   1 C_a :3d2-  -0.0008   0.0100  -0.0188   0.0073   0.0243  -0.0585  -0.0294
   2 C_a :3d2-   0.0148  -0.0148  -0.0479   0.0864  -0.2405  -0.0168   0.8694
   3 C_a :3d2-   0.0878  -1.2338  -1.7925   2.4923  -0.3299   3.1437   0.9395
   4 C_a :3d2-   1.2617  -0.9541   0.2978   0.5892  -0.2211   0.0693   0.3168
   5 C_a :4f2-   0.0040   0.0085   0.0327   0.0092   0.0241  -0.0761   0.0660
   6 C_a :4f2-  -0.0324  -0.0199  -0.2295  -0.0213  -0.1216   0.6159  -0.8547
   7 C_a :4f2-   0.1797  -0.6568   0.2470   2.0587   0.2507   1.0975   0.9589
   8 O_a :3d2-   0.0010   0.0030  -0.0015  -0.0035  -0.0304  -0.0300  -0.0219
   9 O_a :3d2-   0.0004   0.0085  -0.0158   0.0934   0.0656   0.0684   0.0299
  10 O_a :3d2-   0.0299   0.1167   0.2710  -0.4999  -0.8000  -1.8715  -0.5669
  11 O_a :3d2-  -0.5025   2.6572   0.8363  -2.8142   0.7996  -1.9460  -1.1709
  12 O_a :4f2-   0.0019  -0.0079   0.0003   0.0059  -0.0233   0.0107   0.0243
  13 O_a :4f2-  -0.0102   0.0434   0.0120  -0.0415   0.1321  -0.0329  -0.1161
  14 O_a :4f2-   0.0280  -0.3176  -0.3237   0.3773  -1.0485   1.5118   0.8699

    Orbital         8        9       10
   1 C_a :3d2-  -0.0124  -0.0466   0.1171
   2 C_a :3d2-   2.1065  -0.1049  -1.2469
   3 C_a :3d2-   1.7514  -0.7284   0.6503
   4 C_a :3d2-  -0.0458   0.0202   0.1504
   5 C_a :4f2-  -0.0855  -0.1196   0.0051
   6 C_a :4f2-   1.8977   0.1637  -0.9931
   7 C_a :4f2-   0.3196  -0.5219   0.4273
   9 O_a :3d2-   0.0712  -1.2931   0.4566
  10 O_a :3d2-  -2.9476   1.2873   0.7056
  11 O_a :3d2-  -0.7339   0.2664  -0.7566
  12 O_a :4f2-  -0.0308   0.0492   0.1234
  13 O_a :4f2-   0.1804  -0.3736  -1.5867
  14 O_a :4f2-   1.6636  -0.0995   0.3050

  Total CPU  time used in SIRIUS :   1.56 seconds
  Total wall time used in SIRIUS :   1.57 seconds

 
     Date and time (Linux)  : Wed Jan 11 14:16:40 2023
     Host name              : cn023                                   


                     .---------------------------------------.
                     | End of Wave Function Section (SIRIUS) |
                     `---------------------------------------'



                 .------------------------------------------------.
                 | Starting in Dynamic Property Section (RESPONS) |
                 `------------------------------------------------'


 ----------------------------------------------------------------------------------------
  RESPONSE  -  an MCSCF, MC-srDFT, DFT, SOPPA and SOPPA-srDFT response property program
 ----------------------------------------------------------------------------------------


 -------- OUTPUT FROM RESPONSE INPUT PROCESSING --------




 Linear Response calculation
 ---------------------------

 Print level                                    : IPRLR  =   2
 Maximum number of iterations                   : MAXITL =  60
 Threshold for relative convergence             : THCLR  = 1.000D-03
 Maximum iterations in optimal orbital algorithm: MAXITO =   5

  9 B-frequencies  0.000000D+00  2.015931D-02  4.031862D-02  6.047794D-02  8.063725D-02
  1.007966D-01  1.209559D-01  1.411152D-01  1.612745D-01

    1 second order properties calculated with symmetry no.    1 and labels:

          ZDIPLEN 

    1 second order properties calculated with symmetry no.    2 and labels:

          XDIPLEN 

    1 second order properties calculated with symmetry no.    3 and labels:

          YDIPLEN 


   SCF energy         :     -112.781690585580577
 -- inactive part     :     -135.295761880139679
 -- nuclear repulsion :       22.514071294559098


                     ***************************************
                     *** RHF response calculation (TDHF) ***
                     ***************************************

 ----------------------------------------------------------------
 ----- Linear response calculation
 ----- Symmetry of excitation/property operator(s)    1  ( A1 )
 ----------------------------------------------------------------

 Number of excitations of this symmetry            0
 Number of response properties of this symmetry    1
 Number of C6/C8 properties of this symmetry       0


 Perturbation symmetry.     KSYMOP:           1
 Perturbation spin symmetry.TRPLET:           F
 Orbital variables.         KZWOPT:         283
 Configuration variables.   KZCONF:           0
 Total number of variables. KZVAR :         283


 RSPLR -- linear response calculation for symmetry 1  ( A1 )
 RSPLR -- operator label : ZDIPLEN 
 RSPLR -- operator spin  :   0
 RSPLR -- frequencies    :     0.000000  0.020159  0.040319  0.060478  0.080637
                               0.100797  0.120956  0.141115  0.161274



 ---  SOLVING SETS OF LINEAR EQUATIONS FOR LINEAR RESPONSE PROPERTIES ---

 Operator symmetry = 1  ( A1 ); triplet =   F


 ** RSPCTL MICROITERATION NUMBER    1

       No.  Residual tot.,    conf., and orb.    Bnorm      Frequency 
      ----------------------------------------------------------------
         1    2.97440D+00  0.00D+00  2.97D+00  2.55D+00    0.00000D+00
         2    2.97720D+00  0.00D+00  2.98D+00  2.56D+00    2.01593D-02
         3    2.98564D+00  0.00D+00  2.99D+00  2.57D+00    4.03186D-02
         4    2.99983D+00  0.00D+00  3.00D+00  2.60D+00    6.04779D-02
         5    3.01996D+00  0.00D+00  3.02D+00  2.64D+00    8.06372D-02
         6    3.04634D+00  0.00D+00  3.05D+00  2.68D+00    1.00797D-01
         7    3.07933D+00  0.00D+00  3.08D+00  2.75D+00    1.20956D-01
         8    3.11946D+00  0.00D+00  3.12D+00  2.82D+00    1.41115D-01
         9    3.16735D+00  0.00D+00  3.17D+00  2.91D+00    1.61274D-01

 ** RSPCTL MICROITERATION NUMBER    2

       No.  Residual tot.,    conf., and orb.    Bnorm      Frequency 
      ----------------------------------------------------------------
         1    5.86608D-01  0.00D+00  5.87D-01  3.14D+00    0.00000D+00
         2    5.87572D-01  0.00D+00  5.88D-01  3.15D+00    2.01593D-02
         3    5.90483D-01  0.00D+00  5.90D-01  3.17D+00    4.03186D-02
         4    5.95399D-01  0.00D+00  5.95D-01  3.21D+00    6.04779D-02
         5    6.02423D-01  0.00D+00  6.02D-01  3.26D+00    8.06372D-02
         6    6.11702D-01  0.00D+00  6.12D-01  3.32D+00    1.00797D-01
         7    6.23445D-01  0.00D+00  6.23D-01  3.41D+00    1.20956D-01
         8    6.37925D-01  0.00D+00  6.38D-01  3.51D+00    1.41115D-01
         9    6.55508D-01  0.00D+00  6.56D-01  3.64D+00    1.61274D-01

 ** RSPCTL MICROITERATION NUMBER    3

       No.  Residual tot.,    conf., and orb.    Bnorm      Frequency 
      ----------------------------------------------------------------
         1    6.99098D-02  0.00D+00  6.99D-02  3.17D+00    0.00000D+00
         2    7.00625D-02  0.00D+00  7.01D-02  3.18D+00    2.01593D-02
         3    7.05245D-02  0.00D+00  7.05D-02  3.20D+00    4.03186D-02
         4    7.13071D-02  0.00D+00  7.13D-02  3.23D+00    6.04779D-02
         5    7.24302D-02  0.00D+00  7.24D-02  3.29D+00    8.06372D-02
         6    7.39233D-02  0.00D+00  7.39D-02  3.36D+00    1.00797D-01
         7    7.58279D-02  0.00D+00  7.58D-02  3.44D+00    1.20956D-01
         8    7.82007D-02  0.00D+00  7.82D-02  3.55D+00    1.41115D-01
         9    8.11183D-02  0.00D+00  8.11D-02  3.68D+00    1.61274D-01

 ** RSPCTL MICROITERATION NUMBER    4

       No.  Residual tot.,    conf., and orb.    Bnorm      Frequency 
      ----------------------------------------------------------------
         1    5.84892D-03  0.00D+00  5.85D-03  3.17D+00    0.00000D+00
         2    5.87078D-03  0.00D+00  5.87D-03  3.18D+00    2.01593D-02
         3    5.93704D-03  0.00D+00  5.94D-03  3.20D+00    4.03186D-02
         4    6.04980D-03  0.00D+00  6.05D-03  3.24D+00    6.04779D-02
         5    6.21270D-03  0.00D+00  6.21D-03  3.29D+00    8.06372D-02
         6    6.43119D-03  0.00D+00  6.43D-03  3.36D+00    1.00797D-01
         7    6.71294D-03  0.00D+00  6.71D-03  3.44D+00    1.20956D-01
         8    7.06840D-03  0.00D+00  7.07D-03  3.55D+00    1.41115D-01
         9    7.51168D-03  0.00D+00  7.51D-03  3.68D+00    1.61274D-01

 ** RSPCTL MICROITERATION NUMBER    5

       No.  Residual tot.,    conf., and orb.    Bnorm      Frequency 
      ----------------------------------------------------------------
         1    5.62045D-04  0.00D+00  5.62D-04  3.17D+00    0.00000D+00
         2    5.65219D-04  0.00D+00  5.65D-04  3.18D+00    2.01593D-02
         3    5.74886D-04  0.00D+00  5.75D-04  3.20D+00    4.03186D-02
         4    5.91485D-04  0.00D+00  5.91D-04  3.24D+00    6.04779D-02
         5    6.15801D-04  0.00D+00  6.16D-04  3.29D+00    8.06372D-02
         6    6.49038D-04  0.00D+00  6.49D-04  3.36D+00    1.00797D-01
         7    6.92964D-04  0.00D+00  6.93D-04  3.44D+00    1.20956D-01
         8    7.50115D-04  0.00D+00  7.50D-04  3.55D+00    1.41115D-01
         9    8.24151D-04  0.00D+00  8.24D-04  3.68D+00    1.61274D-01

 *** THE REQUESTED    9 SOLUTION VECTORS CONVERGED

 Convergence of RSP solution vectors, threshold = 1.00D-03
 ---------------------------------------------------------------
 (dimension of paired reduced space:   90)
 RSP solution vector no.    1; norm of residual   1.77D-04
 RSP solution vector no.    2; norm of residual   1.78D-04
 RSP solution vector no.    3; norm of residual   1.80D-04
 RSP solution vector no.    4; norm of residual   1.83D-04
 RSP solution vector no.    5; norm of residual   1.87D-04
 RSP solution vector no.    6; norm of residual   1.93D-04
 RSP solution vector no.    7; norm of residual   2.01D-04
 RSP solution vector no.    8; norm of residual   2.11D-04
 RSP solution vector no.    9; norm of residual   2.24D-04

 *** RSPCTL MICROITERATIONS CONVERGED


           Final output of second order properties from linear response
           ------------------------------------------------------------


@ Spin symmetry of operators: singlet

 Note that minus the linear response function: - << A; B >>(omega) is printed.
 The results are of quadratic accuracy using Sellers formula.

@ FREQUENCY INDEPENDENT SECOND ORDER PROPERTIES

@ -<< ZDIPLEN  ; ZDIPLEN  >> =  1.448853538317E+01

@ FREQUENCY DEPENDENT SECOND ORDER PROPERTIES WITH FREQUENCY :

@    a.u.:  2.0159312D-02
@    cm-1:  4.4244576D+03
@    eV  :  5.4856280D-01
@  kJ/mol:  5.2928267D+01
@    nm  :  2.2601640D+03

@ -<< ZDIPLEN  ; ZDIPLEN  >> =  1.450538858555E+01

@ FREQUENCY DEPENDENT SECOND ORDER PROPERTIES WITH FREQUENCY :

@    a.u.:  4.0318625D-02
@    cm-1:  8.8489153D+03
@    eV  :  1.0971256D+00
@  kJ/mol:  1.0585653D+02
@    nm  :  1.1300820D+03

@ -<< ZDIPLEN  ; ZDIPLEN  >> =  1.455624135822E+01

@ FREQUENCY DEPENDENT SECOND ORDER PROPERTIES WITH FREQUENCY :

@    a.u.:  6.0477937D-02
@    cm-1:  1.3273373D+04
@    eV  :  1.6456884D+00
@  kJ/mol:  1.5878480D+02
@    nm  :  7.5338801D+02

@ -<< ZDIPLEN  ; ZDIPLEN  >> =  1.464198735441E+01

@ FREQUENCY DEPENDENT SECOND ORDER PROPERTIES WITH FREQUENCY :

@    a.u.:  8.0637250D-02
@    cm-1:  1.7697831D+04
@    eV  :  2.1942512D+00
@  kJ/mol:  2.1171307D+02
@    nm  :  5.6504101D+02

@ -<< ZDIPLEN  ; ZDIPLEN  >> =  1.476416455737E+01

@ FREQUENCY DEPENDENT SECOND ORDER PROPERTIES WITH FREQUENCY :

@    a.u.:  1.0079656D-01
@    cm-1:  2.2122288D+04
@    eV  :  2.7428140D+00
@  kJ/mol:  2.6464133D+02
@    nm  :  4.5203281D+02

@ -<< ZDIPLEN  ; ZDIPLEN  >> =  1.492503315321E+01

@ FREQUENCY DEPENDENT SECOND ORDER PROPERTIES WITH FREQUENCY :

@    a.u.:  1.2095587D-01
@    cm-1:  2.6546746D+04
@    eV  :  3.2913768D+00
@  kJ/mol:  3.1756960D+02
@    nm  :  3.7669400D+02

@ -<< ZDIPLEN  ; ZDIPLEN  >> =  1.512769549333E+01

@ FREQUENCY DEPENDENT SECOND ORDER PROPERTIES WITH FREQUENCY :

@    a.u.:  1.4111519D-01
@    cm-1:  3.0971203D+04
@    eV  :  3.8399396D+00
@  kJ/mol:  3.7049787D+02
@    nm  :  3.2288058D+02

@ -<< ZDIPLEN  ; ZDIPLEN  >> =  1.537627137398E+01

@ FREQUENCY DEPENDENT SECOND ORDER PROPERTIES WITH FREQUENCY :

@    a.u.:  1.6127450D-01
@    cm-1:  3.5395661D+04
@    eV  :  4.3885024D+00
@  kJ/mol:  4.2342613D+02
@    nm  :  2.8252050D+02

@ -<< ZDIPLEN  ; ZDIPLEN  >> =  1.567614961330E+01


 Time used in linear response calculation is      1.74 CPU seconds for symmetry 1
 ----------------------------------------------------------------
 ----- Linear response calculation
 ----- Symmetry of excitation/property operator(s)    2  ( B1 )
 ----------------------------------------------------------------

 Number of excitations of this symmetry            0
 Number of response properties of this symmetry    1
 Number of C6/C8 properties of this symmetry       0


 Perturbation symmetry.     KSYMOP:           2
 Perturbation spin symmetry.TRPLET:           F
 Orbital variables.         KZWOPT:         204
 Configuration variables.   KZCONF:           0
 Total number of variables. KZVAR :         204


 RSPLR -- linear response calculation for symmetry 2  ( B1 )
 RSPLR -- operator label : XDIPLEN 
 RSPLR -- operator spin  :   0
 RSPLR -- frequencies    :     0.000000  0.020159  0.040319  0.060478  0.080637
                               0.100797  0.120956  0.141115  0.161274



 ---  SOLVING SETS OF LINEAR EQUATIONS FOR LINEAR RESPONSE PROPERTIES ---

 Operator symmetry = 2  ( B1 ); triplet =   F


 ** RSPCTL MICROITERATION NUMBER    1

       No.  Residual tot.,    conf., and orb.    Bnorm      Frequency 
      ----------------------------------------------------------------
         1    9.04734D-01  0.00D+00  9.05D-01  2.79D+00    0.00000D+00
         2    9.06723D-01  0.00D+00  9.07D-01  2.80D+00    2.01593D-02
         3    9.12772D-01  0.00D+00  9.13D-01  2.82D+00    4.03186D-02
         4    9.23142D-01  0.00D+00  9.23D-01  2.87D+00    6.04779D-02
         5    9.38297D-01  0.00D+00  9.38D-01  2.94D+00    8.06372D-02
         6    9.58953D-01  0.00D+00  9.59D-01  3.03D+00    1.00797D-01
         7    9.86153D-01  0.00D+00  9.86D-01  3.15D+00    1.20956D-01
         8    1.02140D+00  0.00D+00  1.02D+00  3.30D+00    1.41115D-01
         9    1.06687D+00  0.00D+00  1.07D+00  3.48D+00    1.61274D-01

 ** RSPCTL MICROITERATION NUMBER    2

       No.  Residual tot.,    conf., and orb.    Bnorm      Frequency 
      ----------------------------------------------------------------
         1    1.28833D-01  0.00D+00  1.29D-01  2.86D+00    0.00000D+00
         2    1.29385D-01  0.00D+00  1.29D-01  2.87D+00    2.01593D-02
         3    1.31076D-01  0.00D+00  1.31D-01  2.90D+00    4.03186D-02
         4    1.34017D-01  0.00D+00  1.34D-01  2.96D+00    6.04779D-02
         5    1.38410D-01  0.00D+00  1.38D-01  3.04D+00    8.06372D-02
         6    1.44581D-01  0.00D+00  1.45D-01  3.15D+00    1.00797D-01
         7    1.53033D-01  0.00D+00  1.53D-01  3.29D+00    1.20956D-01
         8    1.64540D-01  0.00D+00  1.65D-01  3.48D+00    1.41115D-01
         9    1.80322D-01  0.00D+00  1.80D-01  3.73D+00    1.61274D-01

 ** RSPCTL MICROITERATION NUMBER    3

       No.  Residual tot.,    conf., and orb.    Bnorm      Frequency 
      ----------------------------------------------------------------
         1    1.45205D-02  0.00D+00  1.45D-02  2.86D+00    0.00000D+00
         2    1.45909D-02  0.00D+00  1.46D-02  2.87D+00    2.01593D-02
         3    1.48080D-02  0.00D+00  1.48D-02  2.90D+00    4.03186D-02
         4    1.51911D-02  0.00D+00  1.52D-02  2.96D+00    6.04779D-02
         5    1.57754D-02  0.00D+00  1.58D-02  3.04D+00    8.06372D-02
         6    1.66181D-02  0.00D+00  1.66D-02  3.15D+00    1.00797D-01
         7    1.78090D-02  0.00D+00  1.78D-02  3.30D+00    1.20956D-01
         8    1.94878D-02  0.00D+00  1.95D-02  3.49D+00    1.41115D-01
         9    2.18759D-02  0.00D+00  2.19D-02  3.74D+00    1.61274D-01

 ** RSPCTL MICROITERATION NUMBER    4

       No.  Residual tot.,    conf., and orb.    Bnorm      Frequency 
      ----------------------------------------------------------------
         1    1.00862D-03  0.00D+00  1.01D-03  2.86D+00    0.00000D+00
         2    1.01449D-03  0.00D+00  1.01D-03  2.87D+00    2.01593D-02
         3    1.03279D-03  0.00D+00  1.03D-03  2.90D+00    4.03186D-02
         4    1.06569D-03  0.00D+00  1.07D-03  2.96D+00    6.04779D-02
         5    1.11721D-03  0.00D+00  1.12D-03  3.04D+00    8.06372D-02
         6    1.19379D-03  0.00D+00  1.19D-03  3.15D+00    1.00797D-01
         7    1.30540D-03  0.00D+00  1.31D-03  3.30D+00    1.20956D-01
         8    1.46720D-03  0.00D+00  1.47D-03  3.49D+00    1.41115D-01
         9    1.70259D-03  0.00D+00  1.70D-03  3.74D+00    1.61274D-01

 *** THE REQUESTED    9 SOLUTION VECTORS CONVERGED

 Convergence of RSP solution vectors, threshold = 1.00D-03
 ---------------------------------------------------------------
 (dimension of paired reduced space:   72)
 RSP solution vector no.    1; norm of residual   3.53D-04
 RSP solution vector no.    2; norm of residual   3.53D-04
 RSP solution vector no.    3; norm of residual   3.56D-04
 RSP solution vector no.    4; norm of residual   3.60D-04
 RSP solution vector no.    5; norm of residual   3.68D-04
 RSP solution vector no.    6; norm of residual   3.79D-04
 RSP solution vector no.    7; norm of residual   3.96D-04
 RSP solution vector no.    8; norm of residual   4.21D-04
 RSP solution vector no.    9; norm of residual   4.55D-04

 *** RSPCTL MICROITERATIONS CONVERGED


           Final output of second order properties from linear response
           ------------------------------------------------------------


@ Spin symmetry of operators: singlet

 Note that minus the linear response function: - << A; B >>(omega) is printed.
 The results are of quadratic accuracy using Sellers formula.

@ FREQUENCY INDEPENDENT SECOND ORDER PROPERTIES

@ -<< XDIPLEN  ; XDIPLEN  >> =  1.127264365072E+01

@ FREQUENCY DEPENDENT SECOND ORDER PROPERTIES WITH FREQUENCY :

@    a.u.:  2.0159312D-02
@    cm-1:  4.4244576D+03
@    eV  :  5.4856280D-01
@  kJ/mol:  5.2928267D+01
@    nm  :  2.2601640D+03

@ -<< XDIPLEN  ; XDIPLEN  >> =  1.128973852066E+01

@ FREQUENCY DEPENDENT SECOND ORDER PROPERTIES WITH FREQUENCY :

@    a.u.:  4.0318625D-02
@    cm-1:  8.8489153D+03
@    eV  :  1.0971256D+00
@  kJ/mol:  1.0585653D+02
@    nm  :  1.1300820D+03

@ -<< XDIPLEN  ; XDIPLEN  >> =  1.134158569644E+01

@ FREQUENCY DEPENDENT SECOND ORDER PROPERTIES WITH FREQUENCY :

@    a.u.:  6.0477937D-02
@    cm-1:  1.3273373D+04
@    eV  :  1.6456884D+00
@  kJ/mol:  1.5878480D+02
@    nm  :  7.5338801D+02

@ -<< XDIPLEN  ; XDIPLEN  >> =  1.142993278766E+01

@ FREQUENCY DEPENDENT SECOND ORDER PROPERTIES WITH FREQUENCY :

@    a.u.:  8.0637250D-02
@    cm-1:  1.7697831D+04
@    eV  :  2.1942512D+00
@  kJ/mol:  2.1171307D+02
@    nm  :  5.6504101D+02

@ -<< XDIPLEN  ; XDIPLEN  >> =  1.155790552620E+01

@ FREQUENCY DEPENDENT SECOND ORDER PROPERTIES WITH FREQUENCY :

@    a.u.:  1.0079656D-01
@    cm-1:  2.2122288D+04
@    eV  :  2.7428140D+00
@  kJ/mol:  2.6464133D+02
@    nm  :  4.5203281D+02

@ -<< XDIPLEN  ; XDIPLEN  >> =  1.173037915335E+01

@ FREQUENCY DEPENDENT SECOND ORDER PROPERTIES WITH FREQUENCY :

@    a.u.:  1.2095587D-01
@    cm-1:  2.6546746D+04
@    eV  :  3.2913768D+00
@  kJ/mol:  3.1756960D+02
@    nm  :  3.7669400D+02

@ -<< XDIPLEN  ; XDIPLEN  >> =  1.195462343928E+01

@ FREQUENCY DEPENDENT SECOND ORDER PROPERTIES WITH FREQUENCY :

@    a.u.:  1.4111519D-01
@    cm-1:  3.0971203D+04
@    eV  :  3.8399396D+00
@  kJ/mol:  3.7049787D+02
@    nm  :  3.2288058D+02

@ -<< XDIPLEN  ; XDIPLEN  >> =  1.224141031439E+01

@ FREQUENCY DEPENDENT SECOND ORDER PROPERTIES WITH FREQUENCY :

@    a.u.:  1.6127450D-01
@    cm-1:  3.5395661D+04
@    eV  :  4.3885024D+00
@  kJ/mol:  4.2342613D+02
@    nm  :  2.8252050D+02

@ -<< XDIPLEN  ; XDIPLEN  >> =  1.260696727114E+01


 Time used in linear response calculation is      1.41 CPU seconds for symmetry 2
 ----------------------------------------------------------------
 ----- Linear response calculation
 ----- Symmetry of excitation/property operator(s)    3  ( B2 )
 ----------------------------------------------------------------

 Number of excitations of this symmetry            0
 Number of response properties of this symmetry    1
 Number of C6/C8 properties of this symmetry       0


 Perturbation symmetry.     KSYMOP:           3
 Perturbation spin symmetry.TRPLET:           F
 Orbital variables.         KZWOPT:         204
 Configuration variables.   KZCONF:           0
 Total number of variables. KZVAR :         204


 RSPLR -- linear response calculation for symmetry 3  ( B2 )
 RSPLR -- operator label : YDIPLEN 
 RSPLR -- operator spin  :   0
 RSPLR -- frequencies    :     0.000000  0.020159  0.040319  0.060478  0.080637
                               0.100797  0.120956  0.141115  0.161274



 ---  SOLVING SETS OF LINEAR EQUATIONS FOR LINEAR RESPONSE PROPERTIES ---

 Operator symmetry = 3  ( B2 ); triplet =   F


 ** RSPCTL MICROITERATION NUMBER    1

       No.  Residual tot.,    conf., and orb.    Bnorm      Frequency 
      ----------------------------------------------------------------
         1    9.05115D-01  0.00D+00  9.05D-01  2.79D+00    0.00000D+00
         2    9.07101D-01  0.00D+00  9.07D-01  2.79D+00    2.01593D-02
         3    9.13142D-01  0.00D+00  9.13D-01  2.82D+00    4.03186D-02
         4    9.23499D-01  0.00D+00  9.23D-01  2.87D+00    6.04779D-02
         5    9.38633D-01  0.00D+00  9.39D-01  2.94D+00    8.06372D-02
         6    9.59255D-01  0.00D+00  9.59D-01  3.03D+00    1.00797D-01
         7    9.86406D-01  0.00D+00  9.86D-01  3.15D+00    1.20956D-01
         8    1.02158D+00  0.00D+00  1.02D+00  3.30D+00    1.41115D-01
         9    1.06694D+00  0.00D+00  1.07D+00  3.48D+00    1.61274D-01

 ** RSPCTL MICROITERATION NUMBER    2

       No.  Residual tot.,    conf., and orb.    Bnorm      Frequency 
      ----------------------------------------------------------------
         1    1.30122D-01  0.00D+00  1.30D-01  2.86D+00    0.00000D+00
         2    1.30665D-01  0.00D+00  1.31D-01  2.87D+00    2.01593D-02
         3    1.32329D-01  0.00D+00  1.32D-01  2.90D+00    4.03186D-02
         4    1.35225D-01  0.00D+00  1.35D-01  2.96D+00    6.04779D-02
         5    1.39550D-01  0.00D+00  1.40D-01  3.04D+00    8.06372D-02
         6    1.45626D-01  0.00D+00  1.46D-01  3.15D+00    1.00797D-01
         7    1.53949D-01  0.00D+00  1.54D-01  3.29D+00    1.20956D-01
         8    1.65283D-01  0.00D+00  1.65D-01  3.48D+00    1.41115D-01
         9    1.80831D-01  0.00D+00  1.81D-01  3.73D+00    1.61274D-01

 ** RSPCTL MICROITERATION NUMBER    3

       No.  Residual tot.,    conf., and orb.    Bnorm      Frequency 
      ----------------------------------------------------------------
         1    1.46222D-02  0.00D+00  1.46D-02  2.86D+00    0.00000D+00
         2    1.47003D-02  0.00D+00  1.47D-02  2.87D+00    2.01593D-02
         3    1.49410D-02  0.00D+00  1.49D-02  2.90D+00    4.03186D-02
         4    1.53647D-02  0.00D+00  1.54D-02  2.96D+00    6.04779D-02
         5    1.60092D-02  0.00D+00  1.60D-02  3.04D+00    8.06372D-02
         6    1.69348D-02  0.00D+00  1.69D-02  3.15D+00    1.00797D-01
         7    1.82356D-02  0.00D+00  1.82D-02  3.30D+00    1.20956D-01
         8    2.00566D-02  0.00D+00  2.01D-02  3.49D+00    1.41115D-01
         9    2.26258D-02  0.00D+00  2.26D-02  3.74D+00    1.61274D-01

 ** RSPCTL MICROITERATION NUMBER    4

       No.  Residual tot.,    conf., and orb.    Bnorm      Frequency 
      ----------------------------------------------------------------
         1    1.02716D-03  0.00D+00  1.03D-03  2.86D+00    0.00000D+00
         2    1.03354D-03  0.00D+00  1.03D-03  2.87D+00    2.01593D-02
         3    1.05346D-03  0.00D+00  1.05D-03  2.90D+00    4.03186D-02
         4    1.08930D-03  0.00D+00  1.09D-03  2.96D+00    6.04779D-02
         5    1.14547D-03  0.00D+00  1.15D-03  3.04D+00    8.06372D-02
         6    1.22902D-03  0.00D+00  1.23D-03  3.15D+00    1.00797D-01
         7    1.35074D-03  0.00D+00  1.35D-03  3.30D+00    1.20956D-01
         8    1.52699D-03  0.00D+00  1.53D-03  3.49D+00    1.41115D-01
         9    1.78286D-03  0.00D+00  1.78D-03  3.74D+00    1.61274D-01

 *** THE REQUESTED    9 SOLUTION VECTORS CONVERGED

 Convergence of RSP solution vectors, threshold = 1.00D-03
 ---------------------------------------------------------------
 (dimension of paired reduced space:   72)
 RSP solution vector no.    1; norm of residual   3.59D-04
 RSP solution vector no.    2; norm of residual   3.60D-04
 RSP solution vector no.    3; norm of residual   3.63D-04
 RSP solution vector no.    4; norm of residual   3.68D-04
 RSP solution vector no.    5; norm of residual   3.77D-04
 RSP solution vector no.    6; norm of residual   3.90D-04
 RSP solution vector no.    7; norm of residual   4.10D-04
 RSP solution vector no.    8; norm of residual   4.38D-04
 RSP solution vector no.    9; norm of residual   4.77D-04

 *** RSPCTL MICROITERATIONS CONVERGED


           Final output of second order properties from linear response
           ------------------------------------------------------------


@ Spin symmetry of operators: singlet

 Note that minus the linear response function: - << A; B >>(omega) is printed.
 The results are of quadratic accuracy using Sellers formula.

@ FREQUENCY INDEPENDENT SECOND ORDER PROPERTIES

@ -<< YDIPLEN  ; YDIPLEN  >> =  1.127264364809E+01

@ FREQUENCY DEPENDENT SECOND ORDER PROPERTIES WITH FREQUENCY :

@    a.u.:  2.0159312D-02
@    cm-1:  4.4244576D+03
@    eV  :  5.4856280D-01
@  kJ/mol:  5.2928267D+01
@    nm  :  2.2601640D+03

@ -<< YDIPLEN  ; YDIPLEN  >> =  1.128973851789E+01

@ FREQUENCY DEPENDENT SECOND ORDER PROPERTIES WITH FREQUENCY :

@    a.u.:  4.0318625D-02
@    cm-1:  8.8489153D+03
@    eV  :  1.0971256D+00
@  kJ/mol:  1.0585653D+02
@    nm  :  1.1300820D+03

@ -<< YDIPLEN  ; YDIPLEN  >> =  1.134158569324E+01

@ FREQUENCY DEPENDENT SECOND ORDER PROPERTIES WITH FREQUENCY :

@    a.u.:  6.0477937D-02
@    cm-1:  1.3273373D+04
@    eV  :  1.6456884D+00
@  kJ/mol:  1.5878480D+02
@    nm  :  7.5338801D+02

@ -<< YDIPLEN  ; YDIPLEN  >> =  1.142993278367E+01

@ FREQUENCY DEPENDENT SECOND ORDER PROPERTIES WITH FREQUENCY :

@    a.u.:  8.0637250D-02
@    cm-1:  1.7697831D+04
@    eV  :  2.1942512D+00
@  kJ/mol:  2.1171307D+02
@    nm  :  5.6504101D+02

@ -<< YDIPLEN  ; YDIPLEN  >> =  1.155790552086E+01

@ FREQUENCY DEPENDENT SECOND ORDER PROPERTIES WITH FREQUENCY :

@    a.u.:  1.0079656D-01
@    cm-1:  2.2122288D+04
@    eV  :  2.7428140D+00
@  kJ/mol:  2.6464133D+02
@    nm  :  4.5203281D+02

@ -<< YDIPLEN  ; YDIPLEN  >> =  1.173037914584E+01

@ FREQUENCY DEPENDENT SECOND ORDER PROPERTIES WITH FREQUENCY :

@    a.u.:  1.2095587D-01
@    cm-1:  2.6546746D+04
@    eV  :  3.2913768D+00
@  kJ/mol:  3.1756960D+02
@    nm  :  3.7669400D+02

@ -<< YDIPLEN  ; YDIPLEN  >> =  1.195462342818E+01

@ FREQUENCY DEPENDENT SECOND ORDER PROPERTIES WITH FREQUENCY :

@    a.u.:  1.4111519D-01
@    cm-1:  3.0971203D+04
@    eV  :  3.8399396D+00
@  kJ/mol:  3.7049787D+02
@    nm  :  3.2288058D+02

@ -<< YDIPLEN  ; YDIPLEN  >> =  1.224141029718E+01

@ FREQUENCY DEPENDENT SECOND ORDER PROPERTIES WITH FREQUENCY :

@    a.u.:  1.6127450D-01
@    cm-1:  3.5395661D+04
@    eV  :  4.3885024D+00
@  kJ/mol:  4.2342613D+02
@    nm  :  2.8252050D+02

@ -<< YDIPLEN  ; YDIPLEN  >> =  1.260696724303E+01


 Time used in linear response calculation is      1.42 CPU seconds for symmetry 3

  Total CPU  time used in RESPONSE:   4.57 seconds
  Total wall time used in RESPONSE:   4.60 seconds


                   .-------------------------------------------.
                   | End of Dynamic Property Section (RESPONS) |
                   `-------------------------------------------'

  Total CPU  time used in DALTON:   6.34 seconds
  Total wall time used in DALTON:   6.39 seconds

 
     Date and time (Linux)  : Wed Jan 11 14:16:45 2023
     Host name              : cn023                                   
