

     ************************************************************************
     *************** Dalton - An Electronic Structure Program ***************
     ************************************************************************

    This is output from DALTON release Dalton2020.0 (2020)
         ( Web site: http://daltonprogram.org )

   ----------------------------------------------------------------------------

    NOTE:
     
    Dalton is an experimental code for the evaluation of molecular
    properties using (MC)SCF, DFT, CI, and CC wave functions.
    The authors accept no responsibility for the performance of
    the code or for the correctness of the results.
     
    The code (in whole or part) is provided under a licence and
    is not to be reproduced for further distribution without
    the written permission of the authors or their representatives.
     
    See the home page "http://daltonprogram.org" for further information.
     
    If results obtained with this code are published,
    the appropriate citations would be both of:
     
       K. Aidas, C. Angeli, K. L. Bak, V. Bakken, R. Bast,
       L. Boman, O. Christiansen, R. Cimiraglia, S. Coriani,
       P. Dahle, E. K. Dalskov, U. Ekstroem,
       T. Enevoldsen, J. J. Eriksen, P. Ettenhuber, B. Fernandez,
       L. Ferrighi, H. Fliegl, L. Frediani, K. Hald, A. Halkier,
       C. Haettig, H. Heiberg, T. Helgaker, A. C. Hennum,
       H. Hettema, E. Hjertenaes, S. Hoest, I.-M. Hoeyvik,
       M. F. Iozzi, B. Jansik, H. J. Aa. Jensen, D. Jonsson,
       P. Joergensen, J. Kauczor, S. Kirpekar,
       T. Kjaergaard, W. Klopper, S. Knecht, R. Kobayashi, H. Koch,
       J. Kongsted, A. Krapp, K. Kristensen, A. Ligabue,
       O. B. Lutnaes, J. I. Melo, K. V. Mikkelsen, R. H. Myhre,
       C. Neiss, C. B. Nielsen, P. Norman, J. Olsen,
       J. M. H. Olsen, A. Osted, M. J. Packer, F. Pawlowski,
       T. B. Pedersen, P. F. Provasi, S. Reine, Z. Rinkevicius,
       T. A. Ruden, K. Ruud, V. Rybkin, P. Salek, C. C. M. Samson,
       A. Sanchez de Meras, T. Saue, S. P. A. Sauer,
       B. Schimmelpfennig, K. Sneskov, A. H. Steindal,
       K. O. Sylvester-Hvid, P. R. Taylor, A. M. Teale,
       E. I. Tellgren, D. P. Tew, A. J. Thorvaldsen, L. Thoegersen,
       O. Vahtras, M. A. Watson, D. J. D. Wilson, M. Ziolkowski
       and H. Agren,
       "The Dalton quantum chemistry program system",
       WIREs Comput. Mol. Sci. 2014, 4:269–284 (doi: 10.1002/wcms.1172)
     
    and
     
       Dalton, a molecular electronic structure program,
       Release Dalton2020.0 (2020), see http://daltonprogram.org
   ----------------------------------------------------------------------------

    Authors in alphabetical order (Major contribution(s) in parenthesis):

  Kestutis Aidas,           Vilnius University,           Lithuania   (QM/MM)
  Celestino Angeli,         University of Ferrara,        Italy       (NEVPT2)
  Keld L. Bak,              UNI-C,                        Denmark     (AOSOPPA, non-adiabatic coupling, magnetic properties)
  Vebjoern Bakken,          University of Oslo,           Norway      (DALTON; geometry optimizer, symmetry detection)
  Radovan Bast,             UiT The Arctic U. of Norway,  Norway      (DALTON installation and execution frameworks)
  Pablo Baudin,             University of Valencia,       Spain       (Cholesky excitation energies)
  Linus Boman,              NTNU,                         Norway      (Cholesky decomposition and subsystems)
  Bruno N. Cabral Tenorio,  Technical Univ. of Denmark,   Denmark     (Lanczos-based CC methods)
  Ove Christiansen,         Aarhus University,            Denmark     (CC module)
  Renzo Cimiraglia,         University of Ferrara,        Italy       (NEVPT2)
  Sonia Coriani,            Technical Univ. of Denmark,   Denmark     (CC and RESPONS modules)
  Janusz Cukras,            University of Warsaw,         Poland      (MChD in RESPONS)
  Paal Dahle,               University of Oslo,           Norway      (Parallelization)
  Erik K. Dalskov,          UNI-C,                        Denmark     (SOPPA)
  Thomas Enevoldsen,        Univ. of Southern Denmark,    Denmark     (SOPPA)
  Janus J. Eriksen,         Aarhus University,            Denmark     (Polarizable embedding, TDA)
  Rasmus Faber,             Technical Univ. of Denmark,   Denmark     (Vib.avg. NMR w. SOPPA, parallel AO-SOPPA, CVS-CC and EOMCC)
  Tobias Fahleson,          KTH Stockholm,                Sweden      (Damped cubic response)
  Berta Fernandez,          U. of Santiago de Compostela, Spain       (Doublet spin, ESR in RESPONS)
  Lara Ferrighi,            Aarhus University,            Denmark     (PCM Cubic response)
  Heike Fliegl,             University of Oslo,           Norway      (CCSD(R12))
  Luca Frediani,            UiT The Arctic U. of Norway,  Norway      (PCM)
  Emmanuel Fromager,        Univ. Strasbourg,             France      (MC-srDFT)
  Bin Gao,                  UiT The Arctic U. of Norway,  Norway      (Gen1Int library)
  Andre S. P. Gomes,        CNRS/Universite de Lille,     France      (Frozen density embedding)
  Christof Haettig,         Ruhr-University Bochum,       Germany     (CC module)
  Kasper Hald,              Aarhus University,            Denmark     (CC module)
  Asger Halkier,            Aarhus University,            Denmark     (CC module)
  Frederik Beyer Hansen,    University of Copenhagen,     Denmark     (Parallel AO-SOPPA)
  Erik D. Hedegaard,        Univ. of Southern Denmark,    Denmark     (Polarizable embedding, QM/MM, and MC-srDFT)
  Hanne Heiberg,            University of Oslo,           Norway      (Geometry analysis, selected one-electron integrals)
  Trygve Helgaker,          University of Oslo,           Norway      (DALTON; ABACUS, ERI, DFT modules, London, and much more)
  Alf Christian Hennum,     University of Oslo,           Norway      (Parity violation)
  Hinne Hettema,            University of Auckland,       New Zealand (Quadratic response in RESPONS; SIRIUS supersymmetry)
  Eirik Hjertenaes,         NTNU,                         Norway      (Cholesky decomposition)
  Pi A. B. Haase,           University of Copenhagen,     Denmark     (Triplet AO-SOPPA)
  Maria Francesca Iozzi,    University of Oslo,           Norway      (RPA)
  Christoph Jacob           TU Braunschweig               Germany     (Frozen density embedding)
  Brano Jansik              Technical Univ. of Ostrava    Czech Rep.  (DFT cubic response)
  Hans Joergen Aa. Jensen,  Univ. of Southern Denmark,    Denmark     (DALTON; SIRIUS, RESPONS, ABACUS, MC-srDFT, and much more)
  Dan Jonsson,              UiT The Arctic U. of Norway,  Norway      (Cubic response in RESPONS module)
  Poul Joergensen,          Aarhus University,            Denmark     (RESPONS, ABACUS, and CC modules)
  Maciej Kaminski,          University of Warsaw,         Poland      (CPPh in RESPONS)
  Joanna Kauczor,           Linkoeping University,        Sweden      (Complex polarization propagator (CPP) module)
  Sheela Kirpekar,          Univ. of Southern Denmark,    Denmark     (Mass-velocity & Darwin integrals)
  Erik Kjellgren,           Univ. of Southern Denmark,    Denmark     (MC-srDFT)
  Wim Klopper,              KIT Karlsruhe,                Germany     (R12 code in CC, SIRIUS, and ABACUS modules)
  Stefan Knecht,            ETH Zurich,                   Switzerland (Parallel CI and MCSCF, MC-srDFT)
  Rika Kobayashi,           Australian National Univ.,    Australia   (DIIS in CC, London in MCSCF)
  Henrik Koch,              NTNU,                         Norway      (CC module, Cholesky decomposition)
  Jacob Kongsted,           Univ. of Southern Denmark,    Denmark     (Polarizable embedding, polarizable density embedding, QM/MM)
  Andrea Ligabue,           University of Modena,         Italy       (CTOCD, AOSOPPA)
  Nanna H. List             Univ. of Southern Denmark,    Denmark     (Polarizable embedding)
  Ola B. Lutnaes,           University of Oslo,           Norway      (DFT Hessian)
  Juan I. Melo,             University of Buenos Aires,   Argentina   (LRESC, Relativistic Effects on NMR Shieldings)
  Kurt V. Mikkelsen,        University of Copenhagen,     Denmark     (MC-SCRF and QM/MM)
  Rolf H. Myhre,            NTNU,                         Norway      (Subsystems and CC3)
  Christian Neiss,          Univ. Erlangen-Nuernberg,     Germany     (CCSD(R12))
  Christian B. Nielsen,     University of Copenhagen,     Denmark     (QM/MM)
  Patrick Norman,           KTH Stockholm,                Sweden      (Cubic response and complex frequency response in RESPONS)
  Jeppe Olsen,              Aarhus University,            Denmark     (SIRIUS CI/density modules)
  Jogvan Magnus H. Olsen,   Aarhus University,            Denmark     (Polarizable embedding and polarizable density embedding)
  Anders Osted,             Copenhagen University,        Denmark     (QM/MM)
  Martin J. Packer,         University of Sheffield,      UK          (SOPPA)
  Filip Pawlowski,          Kazimierz Wielki University,  Poland      (CC3)
  Morten N. Pedersen,       Univ. of Southern Denmark,    Denmark     (Polarizable embedding)
  Thomas B. Pedersen,       University of Oslo,           Norway      (Cholesky decomposition)
  Patricio F. Provasi,      University of Northeastern,   Argentina   (Analysis of coupling constants in localized orbitals)
  Peter Reinholdt,          Univ. of Southern Denmark,    Denmark     (Polarizable embedding and polarizable density embedding)
  Zilvinas Rinkevicius,     KTH Stockholm,                Sweden      (open-shell DFT, ESR)
  Elias Rudberg,            KTH Stockholm,                Sweden      (DFT grid and basis info)
  Torgeir A. Ruden,         University of Oslo,           Norway      (Numerical derivatives in ABACUS)
  Kenneth Ruud,             UiT The Arctic U. of Norway,  Norway      (DALTON; ABACUS magnetic properties and much more)
  Pawel Salek,              KTH Stockholm,                Sweden      (DALTON; DFT code)
  Claire C. M. Samson       University of Karlsruhe       Germany     (Boys localization, r12 integrals in ERI)
  Alfredo Sanchez de Meras, University of Valencia,       Spain       (CC module, Cholesky decomposition)
  Trond Saue,               Paul Sabatier University,     France      (direct Fock matrix construction)
  Stephan P. A. Sauer,      University of Copenhagen,     Denmark     (SOPPA(CCSD), SOPPA prop., AOSOPPA, vibrational g-factors)
  Bernd Schimmelpfennig,    Forschungszentrum Karlsruhe,  Germany     (AMFI module)
  Anna K. Schnack-Petersen, University of Copenhagen,     Denmark     (RPA(D) and HRPA(D) properties in AOSOPPA)
  Kristian Sneskov,         Aarhus University,            Denmark     (Polarizable embedding, QM/MM)
  Arnfinn H. Steindal,      UiT The Arctic U. of Norway,  Norway      (parallel QM/MM, polarizable embedding)
  Casper Steinmann,         Aalborg University,           Denmark     (QFIT, polarizable embedding)
  K. O. Sylvester-Hvid,     University of Copenhagen,     Denmark     (MC-SCRF)
  Peter R. Taylor,          VLSCI/Univ. of Melbourne,     Australia   (Symmetry handling ABACUS, integral transformation)
  Andrew M. Teale,          University of Nottingham,     England     (DFT-AC, DFT-D)
  David P. Tew,             University of Bristol,        England     (CCSD(R12))
  Julien Toulouse,          Sorbonne Univ.,               France      (MC-srDFT)
  Olav Vahtras,             KTH Stockholm,                Sweden      (Triplet response, spin-orbit, ESR, TDDFT, open-shell DFT)
  Lucas Visscher,           Vrije Universiteit Amsterdam, Netherlands (Frozen density embedding)
  David J. Wilson,          La Trobe University,          Australia   (DFT Hessian and DFT magnetizabilities)
  Hans Agren,               KTH Stockholm,                Sweden      (SIRIUS module, RESPONS, MC-SCRF solvation)
 --------------------------------------------------------------------------------

     Date and time (Linux)  : Wed Jan 11 14:21:44 2023
     Host name              : cn023                                   

 * Work memory size             :    64000000 =  488.28 megabytes.

 * Directories for basis set searches:
   1) /gpfs/projects/rjh/adrian/fd_compare/dalton/hf/CO/dipole
   2) /gpfs/projects/rjh/adrian/dalton/build/basis


Compilation information
-----------------------

 Who compiled             | ahurtado
 Host                     | sn-mem
 System                   | Linux-3.10.0-1160.24.1.el7.x86_64
 CMake generator          | Unix Makefiles
 Processor                | x86_64
 64-bit integers          | OFF
 MPI                      | ON
 Fortran compiler         | /gpfs/software/intel/oneAPI/2021_4/mpi/2021.4.0/bi
                          | n/mpif90
 Fortran compiler version | GNU Fortran (GCC) 11.2.0
 C compiler               | /gpfs/software/intel/oneAPI/2021_4/mpi/2021.4.0/bi
                          | n/mpicc
 C compiler version       | gcc (GCC) 11.2.0
 C++ compiler             | /gpfs/software/intel/oneAPI/2021_4/mpi/2021.4.0/bi
                          | n/mpicxx
 C++ compiler version     | unknown
 BLAS                     | /gpfs/software/intel/oneAPI/2021_4/mkl/2021.4.0/li
                          | b/intel64/libmkl_gf_lp64.so;/gpfs/software/intel/o
                          | neAPI/2021_4/mkl/2021.4.0/lib/intel64/libmkl_seque
                          | ntial.so;/gpfs/software/intel/oneAPI/2021_4/mkl/20
                          | 21.4.0/lib/intel64/libmkl_core.so;/usr/lib64/libpt
                          | hread.so;/usr/lib64/libm.so
 LAPACK                   | /gpfs/software/intel/oneAPI/2021_4/mkl/2021.4.0/li
                          | b/intel64/libmkl_lapack95_lp64.a;/gpfs/software/in
                          | tel/oneAPI/2021_4/mkl/2021.4.0/lib/intel64/libmkl_
                          | gf_lp64.so
 Static linking           | OFF
 Last Git revision        | 66052b3af5ea7225e31178bf9a8b031913c72190
 Git branch               | (HEAD detached at Dalton2020.0)
 Configuration time       | 2023-01-11 13:33:37.731835

 * MPI parallel run using 20 processes.


   Content of the .dal input file
 ----------------------------------

**DALTON INPUT
.RUN RESPONSE
.DIRECT
**WAVE FUNCTIONS
.HF
**RESPONSE
*LINEAR
.DIPLEN
.FREQUENCIES
9
0.0 0.0201593125 0.040318625 0.060477937499999995 0.08063725 0.10079656249999999 0.12095587499999999
**END OF DALTON INPUT


   Content of the .mol file
 ----------------------------

BASIS
aug-cc-pCVQZ
blah
blah
Atomtype=2 Atomic
Charge=6 Atoms=1
C_a 0.000000000000 0.000000000000 0.000000000000
Charge=8 Atoms=1
O_a 0.000000000000 0.000000000000 2.132000000000


       *******************************************************************
       *********** Output from DALTON general input processing ***********
       *******************************************************************

 --------------------------------------------------------------------------------
   Overall default print level:    0
   Print level for DALTON.STAT:    1

    Parallel calculation using MPI
    AO-direct calculation (in sections where implemented)
    HERMIT 1- and 2-electron integral sections will be executed
    "Old" integral transformation used (limited to max 255 basis functions)
    Wave function sections will be executed (SIRIUS module)
    Dynamic molecular response properties section will be executed (RESPONSE module)
 --------------------------------------------------------------------------------


   ****************************************************************************
   *************** Output of molecule and basis set information ***************
   ****************************************************************************


    The two title cards from your ".mol" input:
    ------------------------------------------------------------------------
 1: blah                                                                    
 2: blah                                                                    
    ------------------------------------------------------------------------

  Atomic type no.    1
  --------------------
  Nuclear charge:   6.00000
  Number of symmetry independent centers:    1
  Number of basis sets to read;    2
  Basis set file used for this atomic type with Z =   6 :
     "/gpfs/projects/rjh/adrian/dalton/build/basis/aug-cc-pCVQZ"

  Atomic type no.    2
  --------------------
  Nuclear charge:   8.00000
  Number of symmetry independent centers:    1
  Number of basis sets to read;    2
  Basis set file used for this atomic type with Z =   8 :
     "/gpfs/projects/rjh/adrian/dalton/build/basis/aug-cc-pCVQZ"


                      SYMADD: Requested addition of symmetry
                      --------------------------------------

 Symmetry test threshold:  5.00E-06

@   The molecule is centered at center of mass and rotated
@   so principal axes of inertia are along coordinate axes.

 Symmetry class found: C(oo,v)        

 Symmetry Independent Centres             
 ----------------------------
O_a    8 :      0.00000000     0.00000000     0.91388025  Isotope  1
C_a    6 :      0.00000000     0.00000000    -1.21811975  Isotope  1

 The following symmetry elements were found:   X  Y     


                         SYMGRP: Point group information
                         -------------------------------

@    Full point group is: C(oo,v)        
@    Represented as:      C2v

@  * The irrep name for each symmetry:    1: A1     2: B1     3: B2     4: A2 

   * The point group was generated by:

      Reflection in the yz-plane
      Reflection in the xz-plane

   * Group multiplication table

        |  E   C2z  Oxz  Oyz
   -----+--------------------
     E  |  E   C2z  Oxz  Oyz
    C2z | C2z   E   Oyz  Oxz
    Oxz | Oxz  Oyz   E   C2z
    Oyz | Oyz  Oxz  C2z   E 

   * Character table

        |  E   C2z  Oxz  Oyz
   -----+--------------------
    A1  |   1    1    1    1
    B1  |   1   -1    1   -1
    B2  |   1   -1   -1    1
    A2  |   1    1   -1   -1

   * Direct product table

        | A1   B1   B2   A2 
   -----+--------------------
    A1  | A1   B1   B2   A2 
    B1  | B1   A1   A2   B2 
    B2  | B2   A2   A1   B1 
    A2  | A2   B2   B1   A1 


                                 Isotopic Masses
                                 ---------------

                           C_a        12.000000
                           O_a        15.994915

                       Total mass:    27.994915 amu
                       Natural abundance:  98.663 %

 Center-of-mass coordinates (a.u.):    0.000000    0.000000    0.000000
 Center-of-mass coordinates (Angs):    0.000000    0.000000    0.000000


  Atoms and basis sets
  --------------------

  Number of atom types :    2
  Total number of atoms:    2

  Basis set used is "aug-cc-pCVQZ" from the basis set library.

  label    atoms   charge   prim   cont     basis
  ----------------------------------------------------------------------
  C_          1    6.0000   122   109      [16s10p6d4f2g|9s8p6d4f2g]                          
  O_          1    8.0000   122   109      [16s10p6d4f2g|9s8p6d4f2g]                          
  ----------------------------------------------------------------------
  total:      2   14.0000   244   218
  ----------------------------------------------------------------------
  Spherical harmonic basis used.

  Threshold for neglecting AO integrals:  1.00D-12


  Cartesian Coordinates (a.u.)
  ----------------------------

  Total number of coordinates:    6
  C_a     :     1  x   0.0000000000    2  y   0.0000000000    3  z  -1.2181197471
  O_a     :     4  x   0.0000000000    5  y   0.0000000000    6  z   0.9138802529


  Symmetry Coordinates
  --------------------

  Number of coordinates in each symmetry:     2    2    2    0

  Symmetry  A1  ( 1)

    1   C_a   z    3
    2   O_a   z    6

  Symmetry  B1  ( 2)

    3   C_a   x    1
    4   O_a   x    4

  Symmetry  B2  ( 3)

    5   C_a   y    2
    6   O_a   y    5


   Interatomic separations (in Angstrom):
   --------------------------------------

            C_a         O_a   
            ------      ------
 C_a   :    0.000000
 O_a   :    1.128206    0.000000


  Max    interatomic separation is    1.1282 Angstrom (    2.1320 Bohr)
  between atoms    2 and    1, "O_a   " and "C_a   ".

  Min YX interatomic separation is    1.1282 Angstrom (    2.1320 Bohr)


  Bond distances (Angstrom):
  --------------------------

                  atom 1     atom 2       distance
                  ------     ------       --------
  bond distance:  O_a        C_a          1.128206




 Principal moments of inertia (u*A**2) and principal axes
 --------------------------------------------------------

   IA       0.000000          0.000000    0.000000    1.000000
   IB       8.726914          0.000000    1.000000    0.000000
   IC       8.726914          1.000000    0.000000    0.000000


 Rotational constants
 --------------------

@    The molecule is linear.

               B =        57910.39 MHz     (    1.931683 cm-1)


@  Nuclear repulsion energy :   22.514071294559 Hartree


  Symmetry Orbitals
  -----------------

  Number of orbitals in each symmetry:          86   52   52   28


  Symmetry  A1 ( 1)

    1     C_a      1s         1
    2     C_a      1s         2
    3     C_a      1s         3
    4     C_a      1s         4
    5     C_a      1s         5
    6     C_a      1s         6
    7     C_a      1s         7
    8     C_a      1s         8
    9     C_a      1s         9
   10     C_a      2pz       12
   11     C_a      2pz       15
   12     C_a      2pz       18
   13     C_a      2pz       21
   14     C_a      2pz       24
   15     C_a      2pz       27
   16     C_a      2pz       30
   17     C_a      2pz       33
   18     C_a      3d0       36
   19     C_a      3d2+      38
   20     C_a      3d0       41
   21     C_a      3d2+      43
   22     C_a      3d0       46
   23     C_a      3d2+      48
   24     C_a      3d0       51
   25     C_a      3d2+      53
   26     C_a      3d0       56
   27     C_a      3d2+      58
   28     C_a      3d0       61
   29     C_a      3d2+      63
   30     C_a      4f0       67
   31     C_a      4f2+      69
   32     C_a      4f0       74
   33     C_a      4f2+      76
   34     C_a      4f0       81
   35     C_a      4f2+      83
   36     C_a      4f0       88
   37     C_a      4f2+      90
   38     C_a      5g0       96
   39     C_a      5g2+      98
   40     C_a      5g4+     100
   41     C_a      5g0      105
   42     C_a      5g2+     107
   43     C_a      5g4+     109
   44     O_a      1s       110
   45     O_a      1s       111
   46     O_a      1s       112
   47     O_a      1s       113
   48     O_a      1s       114
   49     O_a      1s       115
   50     O_a      1s       116
   51     O_a      1s       117
   52     O_a      1s       118
   53     O_a      2pz      121
   54     O_a      2pz      124
   55     O_a      2pz      127
   56     O_a      2pz      130
   57     O_a      2pz      133
   58     O_a      2pz      136
   59     O_a      2pz      139
   60     O_a      2pz      142
   61     O_a      3d0      145
   62     O_a      3d2+     147
   63     O_a      3d0      150
   64     O_a      3d2+     152
   65     O_a      3d0      155
   66     O_a      3d2+     157
   67     O_a      3d0      160
   68     O_a      3d2+     162
   69     O_a      3d0      165
   70     O_a      3d2+     167
   71     O_a      3d0      170
   72     O_a      3d2+     172
   73     O_a      4f0      176
   74     O_a      4f2+     178
   75     O_a      4f0      183
   76     O_a      4f2+     185
   77     O_a      4f0      190
   78     O_a      4f2+     192
   79     O_a      4f0      197
   80     O_a      4f2+     199
   81     O_a      5g0      205
   82     O_a      5g2+     207
   83     O_a      5g4+     209
   84     O_a      5g0      214
   85     O_a      5g2+     216
   86     O_a      5g4+     218


  Symmetry  B1 ( 2)

   87     C_a      2px       10
   88     C_a      2px       13
   89     C_a      2px       16
   90     C_a      2px       19
   91     C_a      2px       22
   92     C_a      2px       25
   93     C_a      2px       28
   94     C_a      2px       31
   95     C_a      3d1+      37
   96     C_a      3d1+      42
   97     C_a      3d1+      47
   98     C_a      3d1+      52
   99     C_a      3d1+      57
  100     C_a      3d1+      62
  101     C_a      4f1+      68
  102     C_a      4f3+      70
  103     C_a      4f1+      75
  104     C_a      4f3+      77
  105     C_a      4f1+      82
  106     C_a      4f3+      84
  107     C_a      4f1+      89
  108     C_a      4f3+      91
  109     C_a      5g1+      97
  110     C_a      5g3+      99
  111     C_a      5g1+     106
  112     C_a      5g3+     108
  113     O_a      2px      119
  114     O_a      2px      122
  115     O_a      2px      125
  116     O_a      2px      128
  117     O_a      2px      131
  118     O_a      2px      134
  119     O_a      2px      137
  120     O_a      2px      140
  121     O_a      3d1+     146
  122     O_a      3d1+     151
  123     O_a      3d1+     156
  124     O_a      3d1+     161
  125     O_a      3d1+     166
  126     O_a      3d1+     171
  127     O_a      4f1+     177
  128     O_a      4f3+     179
  129     O_a      4f1+     184
  130     O_a      4f3+     186
  131     O_a      4f1+     191
  132     O_a      4f3+     193
  133     O_a      4f1+     198
  134     O_a      4f3+     200
  135     O_a      5g1+     206
  136     O_a      5g3+     208
  137     O_a      5g1+     215
  138     O_a      5g3+     217


  Symmetry  B2 ( 3)

  139     C_a      2py       11
  140     C_a      2py       14
  141     C_a      2py       17
  142     C_a      2py       20
  143     C_a      2py       23
  144     C_a      2py       26
  145     C_a      2py       29
  146     C_a      2py       32
  147     C_a      3d1-      35
  148     C_a      3d1-      40
  149     C_a      3d1-      45
  150     C_a      3d1-      50
  151     C_a      3d1-      55
  152     C_a      3d1-      60
  153     C_a      4f3-      64
  154     C_a      4f1-      66
  155     C_a      4f3-      71
  156     C_a      4f1-      73
  157     C_a      4f3-      78
  158     C_a      4f1-      80
  159     C_a      4f3-      85
  160     C_a      4f1-      87
  161     C_a      5g3-      93
  162     C_a      5g1-      95
  163     C_a      5g3-     102
  164     C_a      5g1-     104
  165     O_a      2py      120
  166     O_a      2py      123
  167     O_a      2py      126
  168     O_a      2py      129
  169     O_a      2py      132
  170     O_a      2py      135
  171     O_a      2py      138
  172     O_a      2py      141
  173     O_a      3d1-     144
  174     O_a      3d1-     149
  175     O_a      3d1-     154
  176     O_a      3d1-     159
  177     O_a      3d1-     164
  178     O_a      3d1-     169
  179     O_a      4f3-     173
  180     O_a      4f1-     175
  181     O_a      4f3-     180
  182     O_a      4f1-     182
  183     O_a      4f3-     187
  184     O_a      4f1-     189
  185     O_a      4f3-     194
  186     O_a      4f1-     196
  187     O_a      5g3-     202
  188     O_a      5g1-     204
  189     O_a      5g3-     211
  190     O_a      5g1-     213


  Symmetry  A2 ( 4)

  191     C_a      3d2-      34
  192     C_a      3d2-      39
  193     C_a      3d2-      44
  194     C_a      3d2-      49
  195     C_a      3d2-      54
  196     C_a      3d2-      59
  197     C_a      4f2-      65
  198     C_a      4f2-      72
  199     C_a      4f2-      79
  200     C_a      4f2-      86
  201     C_a      5g4-      92
  202     C_a      5g2-      94
  203     C_a      5g4-     101
  204     C_a      5g2-     103
  205     O_a      3d2-     143
  206     O_a      3d2-     148
  207     O_a      3d2-     153
  208     O_a      3d2-     158
  209     O_a      3d2-     163
  210     O_a      3d2-     168
  211     O_a      4f2-     174
  212     O_a      4f2-     181
  213     O_a      4f2-     188
  214     O_a      4f2-     195
  215     O_a      5g4-     201
  216     O_a      5g2-     203
  217     O_a      5g4-     210
  218     O_a      5g2-     212

  Symmetries of electric field:  B1 (2)  B2 (3)  A1 (1)

  Symmetries of magnetic field:  B2 (3)  B1 (2)  A2 (4)


                     .---------------------------------------.
                     | Starting in Integral Section (HERMIT) |
                     `---------------------------------------'



 ***************************************************************************************
 ****************** Output from **INTEGRALS input processing (HERMIT) ******************
 ***************************************************************************************


 - Using defaults, no **INTEGRALS input found

 Default print level:        1

 Calculation of one-electron Hamiltonian integrals.

 Center of mass  (bohr):      0.000000000000      0.000000000000      0.000000000000
 Operator center (bohr):      0.000000000000      0.000000000000      0.000000000000
 Gauge origin    (bohr):      0.000000000000      0.000000000000      0.000000000000
 Dipole origin   (bohr):      0.000000000000      0.000000000000      0.000000000000


     ************************************************************************
     ************************** Output from HERINT **************************
     ************************************************************************



                      Nuclear contribution to dipole moments
                      --------------------------------------

                 au               Debye          C m (/(10**-30)

      z      0.00232354         0.00590585         0.01969980


  Time used in GABGEN     is       0.44 seconds
  Total CPU  time used in HERMIT:   0.71 seconds
  Total wall time used in HERMIT:   0.72 seconds


                        .----------------------------------.
                        | End of Integral Section (HERMIT) |
                        `----------------------------------'



                   .--------------------------------------------.
                   | Starting in Wave Function Section (SIRIUS) |
                   `--------------------------------------------'


 *** Output from Huckel module :

     Using EWMO model:          T
     Using EHT  model:          F
     Number of Huckel orbitals each symmetry:    6    2    2    0

 EWMO - Energy Weighted Maximum Overlap - is a Huckel type method,
        which normally is better than Extended Huckel Theory.
 Reference: Linderberg and Ohrn, Propagators in Quantum Chemistry (Wiley, 1973)

 Huckel EWMO eigenvalues for symmetry :  1
          -20.685999     -11.349525      -1.578830      -0.796795      -0.456115
           -0.137637

 Huckel EWMO eigenvalues for symmetry :  2
           -0.717188      -0.305912

 Huckel EWMO eigenvalues for symmetry :  3
           -0.717188      -0.305912

 **********************************************************************
 *SIRIUS* a direct, restricted step, second order MCSCF program       *
 **********************************************************************

 
     Date and time (Linux)  : Wed Jan 11 14:21:45 2023
     Host name              : cn023                                   

 Title lines from ".mol" input file:
     blah                                                                    
     blah                                                                    

 Print level on unit LUPRI =   2 is   0
 Print level on unit LUW4  =   2 is   5

@    Restricted, closed shell Hartree-Fock calculation.

@    Time-dependent Hartree-Fock calculation (random phase approximation).
 Fock matrices are calculated directly and in parallel without use of integrals on disk.

 Initial molecular orbitals are obtained according to
 ".MOSTART EWMO  " input option

     Wave function specification
     ============================
@    Wave function type        --- HF ---
@    Number of closed shell electrons          14
@    Number of electrons in active shells       0
@    Total charge of the molecule               0

@    Spin multiplicity and 2 M_S                1         0
@    Total number of symmetries                 4 (point group: C2v)
@    Reference state symmetry                   1 (irrep name : A1 )

     Orbital specifications
     ======================
@    Abelian symmetry species          All |    1    2    3    4
@                                          |  A1   B1   B2   A2 
                                       --- |  ---  ---  ---  ---
@    Total number of orbitals          218 |   86   52   52   28
@    Number of basis functions         218 |   86   52   52   28

      ** Automatic occupation of RHF orbitals **

      -- Initial occupation of symmetries is determined from extended Huckel guess.           
      -- Initial occupation of symmetries is :
@    Occupied SCF orbitals               7 |    5    1    1    0

     Maximum number of Fock   iterations      0
     Maximum number of DIIS   iterations     60
     Maximum number of QC-SCF iterations     60
     Threshold for SCF convergence     1.00D-05


 ***********************************************
 ***** DIIS acceleration of SCF iterations *****
 ***********************************************

 C1-DIIS algorithm; max error vectors =    8

 Automatic occupation of symmetries with  14 electrons.

 Iter     Total energy    Error norm  Delta(E)    SCF occupation
 -----------------------------------------------------------------------------
   1  Screening settings (-IFTHRS, JTDIIS, DIFDEN, times)   -8    1    T  8.25D-01  8.25D-01
@  1  -112.499857135       3.79D+00  -1.12D+02     5   1   1   0
      Virial theorem: -V/T =      2.006214
@    MULPOP   C_a     0.74; O_a    -0.74; 
   1  Level shift: doubly occupied orbital energies shifted by -2.00D-01
 -----------------------------------------------------------------------------
   2  Screening settings (-IFTHRS, JTDIIS, DIFDEN, times)   -8    2    T  8.37D-01  8.37D-01
@  2  -112.774955435       5.45D-01  -2.75D-01     5   1   1   0
      Virial theorem: -V/T =      1.998273
@    MULPOP   C_a     0.27; O_a    -0.27; 
   2  Level shift: doubly occupied orbital energies shifted by -5.00D-02
 -----------------------------------------------------------------------------
   3  Screening settings (-IFTHRS, JTDIIS, DIFDEN, times)   -8    3    T  8.31D-01  8.31D-01
@  3  -112.787931395       1.24D-01  -1.30D-02     5   1   1   0
      Virial theorem: -V/T =      2.001061
@    MULPOP   C_a     0.29; O_a    -0.29; 
   3  Level shift: doubly occupied orbital energies shifted by -1.25D-02
 -----------------------------------------------------------------------------
   4  Screening settings (-IFTHRS, JTDIIS, DIFDEN, times)  -12    4    F  8.53D-01  8.53D-01
@  4  -112.789071760       5.92D-02  -1.14D-03     5   1   1   0
      Virial theorem: -V/T =      2.001708
@    MULPOP   C_a     0.26; O_a    -0.26; 
 -----------------------------------------------------------------------------
   5  Screening settings (-IFTHRS, JTDIIS, DIFDEN, times)  -12    5    T  8.60D-01  8.60D-01
@  5  -112.789254841       2.50D-02  -1.83D-04     5   1   1   0
      Virial theorem: -V/T =      2.001115
@    MULPOP   C_a     0.28; O_a    -0.28; 
 -----------------------------------------------------------------------------
   6  Screening settings (-IFTHRS, JTDIIS, DIFDEN, times)  -12    6    T  8.46D-01  8.46D-01
@  6  -112.789286196       3.12D-03  -3.14D-05     5   1   1   0
      Virial theorem: -V/T =      2.001345
@    MULPOP   C_a     0.28; O_a    -0.28; 
 -----------------------------------------------------------------------------
   7  Screening settings (-IFTHRS, JTDIIS, DIFDEN, times)  -12    7    T  8.45D-01  8.45D-01
@  7  -112.789287136       6.07D-04  -9.40D-07     5   1   1   0
      Virial theorem: -V/T =      2.001343
@    MULPOP   C_a     0.28; O_a    -0.28; 
 -----------------------------------------------------------------------------
   8  Screening settings (-IFTHRS, JTDIIS, DIFDEN, times)  -12    8    T  8.36D-01  8.36D-01
@  8  -112.789287170       1.32D-04  -3.30D-08     5   1   1   0
      Virial theorem: -V/T =      2.001346
@    MULPOP   C_a     0.28; O_a    -0.28; 
 -----------------------------------------------------------------------------
   9  Screening settings (-IFTHRS, JTDIIS, DIFDEN, times)  -12    9    T  8.30D-01  8.30D-01
@  9  -112.789287171       1.49D-05  -1.77D-09     5   1   1   0
      Virial theorem: -V/T =      2.001346
@    MULPOP   C_a     0.28; O_a    -0.28; 
 -----------------------------------------------------------------------------
  10  Screening settings (-IFTHRS, JTDIIS, DIFDEN, times)  -12   10    T  8.28D-01  8.29D-01
@ 10  -112.789287171       3.07D-06  -3.40D-11     5   1   1   0

@ *** DIIS converged in  10 iterations !
@     Converged SCF energy, gradient:   -112.789287171318    3.07D-06
    - total time used in SIRFCK :              0.00 seconds


 *** SCF orbital energy analysis ***

 Only the 20 lowest virtual orbital energies printed in each symmetry.

 Number of electrons :   14
 Orbital occupations :    5    1    1    0

 Sym       Hartree-Fock orbital energies

1 A1    -20.66524390   -11.36034957    -1.52177233    -0.80464663    -0.55495001
          0.06009236     0.07468472     0.15631750     0.22789497     0.22802524
          0.30125994     0.39175847     0.50837270     0.53459034     0.64515330
          0.76860374     0.77993894     0.87236080     0.89113948     0.91057877
          1.19586665     1.47431058     1.51760591     1.66727814     1.76903983

2 B1     -0.64037342     0.06279414     0.14116273     0.16681381     0.32074772
          0.39581409     0.62312111     0.74878066     0.82345484     0.88105306
          1.07691755     1.44755657     1.55371701     1.80569649     1.96857369
          2.25191513     2.32505096     2.36324634     2.59800906     2.83239063
          3.75089593

3 B2     -0.64037342     0.06279414     0.14116273     0.16681381     0.32074772
          0.39581409     0.62312111     0.74878066     0.82345484     0.88105306
          1.07691755     1.44755657     1.55371701     1.80569649     1.96857369
          2.25191513     2.32505096     2.36324634     2.59800906     2.83239063
          3.75089593

4 A2      0.22789497     0.53459034     0.76860374     0.89113948     1.51760591
          1.76903983     2.10565605     2.19602113     2.36448761     3.00944600
          3.72372337     4.17651781     4.38190484     5.15244086     5.90106955
          6.30586164     6.59077157     7.35152493    10.60186839    11.13566941

    E(LUMO) :     0.06009236 au (symmetry 1)
  - E(HOMO) :    -0.55495001 au (symmetry 1)
  ------------------------------------------
    gap     :     0.61504237 au

 --- Writing SIRIFC interface file

 CPU and wall time for SCF :       8.484       8.491


                       .-----------------------------------.
                       | --- Final results from SIRIUS --- |
                       `-----------------------------------'


@    Spin multiplicity:           1
@    Spatial symmetry:            1 ( irrep  A1  in C2v )
@    Total charge of molecule:    0

@    Final HF energy:            -112.789287171318                 
@    Nuclear repulsion:            22.514071294559
@    Electronic energy:          -135.303358465877

@    Final gradient norm:           0.000003070657

 
     Date and time (Linux)  : Wed Jan 11 14:21:53 2023
     Host name              : cn023                                   

File label for MO orbitals:  11Jan23   FOCKDIIS

 (Only coefficients > 0.0100 are printed.)

 Molecular orbitals for symmetry species 1  (A1 )
 ------------------------------------------------

    Orbital         1        2        3        4        5        6        7
   1 C_a :1s     0.0001   0.9997  -0.0110  -0.0006   0.0041  -0.0053  -0.0314
   2 C_a :1s     0.0002   0.0009   0.4482   0.5770   0.6208   0.0545  -0.2726
   3 C_a :1s    -0.0000   0.0010  -0.0068  -0.0047  -0.0055   0.1262  -0.0536
   4 C_a :1s    -0.0005  -0.0041  -0.1285  -0.0432   0.0608  -0.9720   0.4201
   5 C_a :1s    -0.0009   0.0007  -0.1099  -0.0572   0.1325  -4.8115   0.7943
   6 C_a :1s    -0.0000  -0.0000  -0.0000   0.0004   0.0008  -0.0027  -0.0117
   9 C_a :1s    -0.0000   0.0003  -0.0001   0.0048   0.0174  -4.8268   0.7523
  10 C_a :2pz    0.0005   0.0091   0.3368   0.2023  -0.7136  -0.0330   0.0648
  11 C_a :2pz   -0.0000  -0.0031  -0.0119  -0.0056   0.0145  -0.0516   0.0061
  12 C_a :2pz    0.0005  -0.0048  -0.0784  -0.0261   0.0748  -1.0874   0.2691
  13 C_a :2pz    0.0000  -0.0010  -0.0739  -0.0344   0.0966  -2.7100   0.5590
  17 C_a :2pz    0.0001   0.0002  -0.0002   0.0003  -0.0000  -1.1635  -1.6251
  22 C_a :3d0   -0.0000   0.0004   0.0111   0.0069  -0.0082   0.0067  -0.0014
  24 C_a :3d0    0.0002   0.0005   0.0282   0.0198  -0.0225  -0.1234   0.0331
  26 C_a :3d0    0.0008   0.0005   0.0230   0.0224  -0.0127  -0.5294   0.2366
  28 C_a :3d0    0.0001   0.0005   0.0012   0.0041   0.0002  -0.4804  -0.2512
  34 C_a :4f0    0.0001   0.0002   0.0094   0.0094  -0.0027  -0.0771   0.0473
  36 C_a :4f0    0.0003   0.0003   0.0037   0.0030   0.0009  -0.0976   0.0294
  41 C_a :5g0    0.0001   0.0001   0.0016   0.0027  -0.0004  -0.0186   0.0158
  44 O_a :1s     1.0009  -0.0001  -0.0011   0.0015  -0.0028  -0.0142   0.0019
  45 O_a :1s     0.0053   0.0024   0.8514  -0.4496  -0.0760   0.0157   0.0438
  46 O_a :1s    -0.0001  -0.0004  -0.0076  -0.0006   0.0002  -0.0291   0.0109
  47 O_a :1s    -0.0055  -0.0014  -0.0727  -0.0740   0.0224   0.3211  -0.1586
  48 O_a :1s    -0.0004   0.0005  -0.0761  -0.1695   0.0335   3.0215  -0.6555
  52 O_a :1s     0.0006  -0.0005   0.0069  -0.0314   0.0119   7.3983  -0.3660
  53 O_a :2pz   -0.0042  -0.0010  -0.2330  -0.7316   0.3724   0.0513  -0.0241
  54 O_a :2pz    0.0011  -0.0001  -0.0010   0.0000   0.0009   0.0232   0.0028
  55 O_a :2pz    0.0025  -0.0004   0.0168   0.0434  -0.0109  -0.3849   0.1120
  56 O_a :2pz   -0.0004  -0.0019   0.0221   0.0634  -0.0175  -1.3908   0.2128
  60 O_a :2pz   -0.0003  -0.0002  -0.0016  -0.0024   0.0039  -1.1842   0.9857
  67 O_a :3d0    0.0002   0.0004   0.0124   0.0137  -0.0087   0.0200  -0.0094
  69 O_a :3d0    0.0000   0.0004   0.0225   0.0146  -0.0120   0.1590  -0.0076
  71 O_a :3d0    0.0005   0.0008   0.0081   0.0076  -0.0011   0.1348  -0.0682
  77 O_a :4f0   -0.0000  -0.0003  -0.0053  -0.0032   0.0038  -0.0188  -0.0011
  79 O_a :4f0   -0.0000   0.0000  -0.0045  -0.0022   0.0019  -0.0134   0.0089

    Orbital         8        9       10       11       12       13       14
   1 C_a :1s     0.0599  -0.0000  -0.0369  -0.0302   0.1458  -0.1123   0.0000
   2 C_a :1s     0.4206  -0.0000  -0.2267  -0.2467   0.4090  -0.2196  -0.0000
   3 C_a :1s     0.0470  -0.0000   0.1958   0.2025   0.3979  -0.0464  -0.0000
   4 C_a :1s     1.3321   0.0000  -0.8300  -3.8006   0.7703  -3.3386   0.0000
   5 C_a :1s     3.3490  -0.0000  -8.9782  -8.0414  -8.1289  -9.8589   0.0000
   6 C_a :1s     0.0218  -0.0000  -0.0153  -0.0093   0.0553  -0.0456   0.0000
   9 C_a :1s    -0.4994   0.0000  -6.3299  -2.1539  -4.7078  -1.5025   0.0000
  10 C_a :2pz   -0.0935   0.0000   0.1241   0.3800   0.1202   0.0407  -0.0000
  11 C_a :2pz    0.1360  -0.0000  -0.0139  -0.3545   0.3282  -0.2546  -0.0000
  12 C_a :2pz    0.3986  -0.0000  -1.7876  -2.1010  -1.7550  -1.6582  -0.0000
  13 C_a :2pz   -1.1679  -0.0000  -5.5952  -1.3708  -9.6736  -1.0375   0.0000
  14 C_a :2pz    0.0027  -0.0000  -0.0018  -0.0146   0.0032  -0.0043   0.0000
  17 C_a :2pz   -1.4476  -0.0000  -2.1955   0.8513  -0.8658   0.0992  -0.0000
  22 C_a :3d0    0.0054   0.0000   0.0090   0.0042   0.0384   0.0033  -0.0000
  24 C_a :3d0    0.0515   0.0000  -0.2138  -0.2515  -0.1212  -0.1334  -0.0000
  25 C_a :3d2+  -0.0000   0.0482  -0.0000  -0.0000   0.0000   0.0000   0.0175
  26 C_a :3d0   -0.3936  -0.0000  -1.0626  -0.2531  -2.5374   0.4097   0.0000
  27 C_a :3d2+  -0.0000  -0.1065   0.0000  -0.0000   0.0000   0.0000   0.6410
  28 C_a :3d0   -0.8687  -0.0000  -2.0491   1.9065  -2.8029   0.0297   0.0000
  29 C_a :3d2+   0.0000   1.2053   0.0000  -0.0000  -0.0000   0.0000   0.9284
  32 C_a :4f0    0.0048   0.0000  -0.0142  -0.0178   0.0065  -0.0096  -0.0000
  34 C_a :4f0   -0.0356  -0.0000  -0.1194  -0.1023  -0.3214   0.0571  -0.0000
  35 C_a :4f2+  -0.0000  -0.0324   0.0000  -0.0000   0.0000   0.0000   0.1257
  36 C_a :4f0   -0.2033  -0.0000  -0.3107   0.3024  -0.8620   0.0993  -0.0000
  37 C_a :4f2+   0.0000   0.1288   0.0000  -0.0000  -0.0000   0.0000   0.5656
  38 C_a :5g0   -0.0011   0.0000  -0.0079  -0.0148  -0.0127   0.0094  -0.0000
  39 C_a :5g2+  -0.0000  -0.0064   0.0000  -0.0000   0.0000  -0.0000  -0.0119
  41 C_a :5g0   -0.0256  -0.0000  -0.0334   0.0183  -0.1445   0.0059  -0.0000
  42 C_a :5g2+  -0.0000   0.0030  -0.0000  -0.0000   0.0000   0.0000   0.1366
  44 O_a :1s    -0.0197   0.0000  -0.0303  -0.0480   0.0020   0.0641   0.0000
  45 O_a :1s    -0.1036   0.0000  -0.3291  -0.2825   0.1736   0.3776   0.0000
  46 O_a :1s    -0.0092   0.0000  -0.0511  -0.0532  -0.0738   0.0182  -0.0000
  47 O_a :1s     0.4792  -0.0000   0.5361   0.2749   1.4982  -1.0653   0.0000
  48 O_a :1s    -0.3734   0.0000   5.4991   3.3787   8.1219   4.6144  -0.0000
  49 O_a :1s    -0.0079   0.0000  -0.0101  -0.0177   0.0003   0.0252   0.0000
  52 O_a :1s    -1.9185  -0.0000  13.1664   8.2749   7.8489   8.2726   0.0000
  53 O_a :2pz   -0.0068  -0.0000  -0.0656  -0.1902  -0.0269  -0.1967  -0.0000
  54 O_a :2pz   -0.0482   0.0000   0.0358   0.0657  -0.0495   0.1325   0.0000
  55 O_a :2pz    0.0614   0.0000  -0.6212  -0.6785  -0.7830  -0.3485   0.0000
  56 O_a :2pz    1.8736   0.0000  -1.9855  -4.4788   1.2653  -4.9188   0.0000
  60 O_a :2pz    3.5862   0.0000  -0.0289  -3.5225   1.3083  -2.7977   0.0000
  67 O_a :3d0    0.0111   0.0000   0.0311   0.0242   0.0795   0.0135  -0.0000
  68 O_a :3d2+  -0.0000  -0.0031  -0.0000  -0.0000   0.0000   0.0000  -0.0422
  69 O_a :3d0   -0.2013  -0.0000   0.2089   0.5683  -0.2995   0.5358  -0.0000
  70 O_a :3d2+   0.0000   0.0568  -0.0000   0.0000  -0.0000  -0.0000  -0.0896
  71 O_a :3d0   -1.0013   0.0000  -0.1353   1.1310  -1.4647   2.6812  -0.0000
  72 O_a :3d2+  -0.0000  -0.2684  -0.0000   0.0000   0.0000  -0.0000  -2.1105
  77 O_a :4f0    0.0189  -0.0000  -0.0257  -0.0723   0.0409  -0.0415   0.0000
  78 O_a :4f2+  -0.0000  -0.0141   0.0000  -0.0000   0.0000   0.0000  -0.0064
  79 O_a :4f0    0.1451  -0.0000   0.0300  -0.1477   0.2295  -0.3897  -0.0000
  80 O_a :4f2+  -0.0000   0.0176   0.0000  -0.0000   0.0000   0.0000   0.4059
  82 O_a :5g2+  -0.0000  -0.0004  -0.0000  -0.0000   0.0000   0.0000   0.0107
  84 O_a :5g0   -0.0179   0.0000  -0.0065   0.0218  -0.0316   0.0436   0.0000
  85 O_a :5g2+   0.0000   0.0065   0.0000   0.0000  -0.0000  -0.0000  -0.0586

    Orbital        15
   1 C_a :1s     0.1775
   2 C_a :1s     0.7701
   3 C_a :1s    -0.1516
   4 C_a :1s    -1.7661
   5 C_a :1s     9.9683
   6 C_a :1s     0.0737
   9 C_a :1s     3.5014
  10 C_a :2pz    0.5449
  11 C_a :2pz   -0.0966
  12 C_a :2pz    1.9474
  13 C_a :2pz    5.4622
  17 C_a :2pz    1.2691
  22 C_a :3d0   -0.0296
  24 C_a :3d0    0.1866
  26 C_a :3d0    0.5435
  28 C_a :3d0    1.5651
  32 C_a :4f0    0.0183
  34 C_a :4f0    0.0349
  36 C_a :4f0    0.1112
  38 C_a :5g0    0.0151
  41 C_a :5g0   -0.0509
  44 O_a :1s     0.0350
  45 O_a :1s    -0.1042
  46 O_a :1s     0.0472
  47 O_a :1s    -0.4605
  48 O_a :1s    -5.8304
  49 O_a :1s     0.0155
  52 O_a :1s    -9.0664
  53 O_a :2pz    0.1252
  54 O_a :2pz   -0.0309
  55 O_a :2pz    0.5796
  56 O_a :2pz    1.7719
  60 O_a :2pz   -0.3547
  67 O_a :3d0   -0.0116
  69 O_a :3d0   -0.2082
  71 O_a :3d0    1.4739
  77 O_a :4f0    0.0445
  79 O_a :4f0   -0.2551
  81 O_a :5g0   -0.0111
  84 O_a :5g0    0.0378

 Molecular orbitals for symmetry species 2  (B1 )
 ------------------------------------------------

    Orbital         1        2        3        4        5        6        7
   1 C_a :2px   -0.4345  -0.1459   0.5663  -0.1958  -0.3062   0.6542  -0.5140
   2 C_a :2px   -0.0011   0.0126   0.0012  -0.0349   0.0502   0.0038   0.1126
   3 C_a :2px    0.0397   0.0160   0.4593   0.5856  -0.8603  -1.9259  -1.1263
   4 C_a :2px    0.0726  -0.0610   1.7570   2.1809  -3.1354  -6.2935  -1.1156
   8 C_a :2px    0.0019  -1.6524  -0.0737   2.1803  -1.4663  -0.2905  -0.8295
  11 C_a :3d1+  -0.0104   0.0019  -0.0060   0.0005   0.0128   0.0183   0.0046
  12 C_a :3d1+  -0.0324   0.0159   0.0364   0.0667  -0.1376  -0.2289  -0.0301
  13 C_a :3d1+  -0.0249   0.1038   0.4993   0.5875  -0.8009  -2.3267   0.0982
  14 C_a :3d1+   0.0026  -0.2434   0.1625   1.2983  -2.7772  -1.5974  -0.3920
  17 C_a :4f1+  -0.0057  -0.0001  -0.0019   0.0062  -0.0100  -0.0038  -0.0100
  19 C_a :4f1+  -0.0074   0.0310   0.0800   0.0492  -0.0958  -0.3553   0.1222
  21 C_a :4f1+  -0.0035   0.0086   0.1159   0.2168  -0.4856  -0.6429   0.3320
  23 C_a :5g1+  -0.0029   0.0017   0.0050   0.0037  -0.0038  -0.0201  -0.0125
  25 C_a :5g1+  -0.0005   0.0115   0.0318   0.0164  -0.0647  -0.1350   0.1539
  27 O_a :2px   -0.7916   0.1834  -0.3441   0.2788   0.2524   0.0650   0.3435
  28 O_a :2px   -0.0009   0.0071   0.0341   0.0295  -0.0105  -0.1159  -0.0205
  29 O_a :2px   -0.0041  -0.0421  -0.1713  -0.0986   0.1909   0.6342  -0.1880
  30 O_a :2px    0.0045  -0.0122  -1.1259  -1.4047   2.9229   4.9884   0.3748
  34 O_a :2px   -0.0120   0.9551  -1.2495  -3.9647   3.1551   2.7815   1.9001
  38 O_a :3d1+   0.0185   0.0013  -0.0119  -0.0030   0.0163  -0.0064  -0.0166
  39 O_a :3d1+   0.0262   0.0424   0.1589   0.1569  -0.3487  -0.8368   0.1316
  40 O_a :3d1+   0.0107  -0.0287   0.4738   0.8848  -0.6914  -2.2549  -2.2933
  45 O_a :4f1+  -0.0060  -0.0053  -0.0131  -0.0075   0.0519   0.0837  -0.0426
  47 O_a :4f1+  -0.0039   0.0032  -0.0809  -0.1362   0.0863   0.3601   0.4051
  51 O_a :5g1+   0.0012  -0.0021   0.0062   0.0150  -0.0214  -0.0344  -0.0553

    Orbital         8        9       10       11
   1 C_a :2px   -0.0000  -0.3235   0.2928   0.6937
   2 C_a :2px    0.0000   0.2518   0.0636  -0.1830
   3 C_a :2px    0.0000  -1.1324   4.9779   1.4929
   4 C_a :2px    0.0000  -3.9725   5.9308   4.0584
   5 C_a :2px   -0.0000   0.0141   0.0053  -0.0063
   8 C_a :2px   -0.0000  -0.7230   0.1771   0.0535
  11 C_a :3d1+   0.0000   0.0178  -0.0468   0.0291
  12 C_a :3d1+  -0.0000  -0.0427   0.8387  -0.0719
  13 C_a :3d1+  -0.0000  -1.2602   3.8570   3.8117
  14 C_a :3d1+  -0.0000  -2.2290   1.3397   0.9167
  17 C_a :4f1+   0.0000  -0.0217   0.0360  -0.0187
  18 C_a :4f3+   0.0403   0.0000   0.0000   0.0000
  19 C_a :4f1+  -0.0000  -0.0419   0.8114   0.2781
  20 C_a :4f3+  -0.2099  -0.0000  -0.0000  -0.0000
  21 C_a :4f1+  -0.0000  -1.8302   0.0672   1.9074
  22 C_a :4f3+   1.1447   0.0000   0.0000   0.0000
  23 C_a :5g1+   0.0000   0.0182   0.0900  -0.0119
  25 C_a :5g1+  -0.0000  -0.2016   0.0908   0.2918
  26 C_a :5g3+   0.0299  -0.0000   0.0000  -0.0000
  27 O_a :2px    0.0000  -0.2903   0.2568  -0.6341
  28 O_a :2px   -0.0000  -0.0266   0.1155   0.2546
  29 O_a :2px   -0.0000   0.3000  -0.8860  -1.1899
  30 O_a :2px    0.0000   5.1325  -9.0188  -5.1851
  31 O_a :2px   -0.0000  -0.0011   0.0047   0.0184
  34 O_a :2px    0.0000   2.0160  -1.8078  -1.1420
  38 O_a :3d1+   0.0000   0.0201  -0.0319  -0.0305
  39 O_a :3d1+  -0.0000  -0.4346   1.8205   0.5287
  40 O_a :3d1+  -0.0000  -0.9028   4.0236   1.2816
  43 O_a :4f1+  -0.0000  -0.0066   0.0186  -0.0027
  45 O_a :4f1+   0.0000   0.0433  -0.2590   0.0166
  46 O_a :4f3+   0.0163   0.0000  -0.0000   0.0000
  47 O_a :4f1+  -0.0000  -0.0895  -0.9440  -0.0494
  48 O_a :4f3+  -0.0744   0.0000   0.0000   0.0000
  51 O_a :5g1+  -0.0000   0.0093   0.1601  -0.0707

 Molecular orbitals for symmetry species 3  (B2 )
 ------------------------------------------------

    Orbital         1        2        3        4        5        6        7
   1 C_a :2py   -0.4345  -0.1459   0.5663  -0.1958  -0.3062   0.6542  -0.5140
   2 C_a :2py   -0.0011   0.0126   0.0012  -0.0349   0.0502   0.0038   0.1126
   3 C_a :2py    0.0397   0.0160   0.4593   0.5856  -0.8603  -1.9259  -1.1263
   4 C_a :2py    0.0726  -0.0610   1.7570   2.1809  -3.1354  -6.2935  -1.1156
   8 C_a :2py    0.0019  -1.6524  -0.0737   2.1803  -1.4663  -0.2905  -0.8295
  11 C_a :3d1-  -0.0104   0.0019  -0.0060   0.0005   0.0128   0.0183   0.0046
  12 C_a :3d1-  -0.0324   0.0159   0.0364   0.0667  -0.1376  -0.2289  -0.0301
  13 C_a :3d1-  -0.0249   0.1038   0.4993   0.5875  -0.8009  -2.3267   0.0982
  14 C_a :3d1-   0.0026  -0.2434   0.1625   1.2983  -2.7772  -1.5974  -0.3920
  18 C_a :4f1-  -0.0057  -0.0001  -0.0019   0.0062  -0.0100  -0.0038  -0.0100
  20 C_a :4f1-  -0.0074   0.0310   0.0800   0.0492  -0.0958  -0.3553   0.1222
  22 C_a :4f1-  -0.0035   0.0086   0.1159   0.2168  -0.4856  -0.6429   0.3320
  24 C_a :5g1-  -0.0029   0.0017   0.0050   0.0037  -0.0038  -0.0201  -0.0125
  26 C_a :5g1-  -0.0005   0.0115   0.0318   0.0164  -0.0647  -0.1350   0.1539
  27 O_a :2py   -0.7916   0.1834  -0.3441   0.2788   0.2524   0.0650   0.3435
  28 O_a :2py   -0.0009   0.0071   0.0341   0.0295  -0.0105  -0.1159  -0.0205
  29 O_a :2py   -0.0041  -0.0421  -0.1713  -0.0986   0.1909   0.6342  -0.1880
  30 O_a :2py    0.0045  -0.0122  -1.1259  -1.4047   2.9229   4.9884   0.3748
  34 O_a :2py   -0.0120   0.9551  -1.2495  -3.9647   3.1551   2.7815   1.9001
  38 O_a :3d1-   0.0185   0.0013  -0.0119  -0.0030   0.0163  -0.0064  -0.0166
  39 O_a :3d1-   0.0262   0.0424   0.1589   0.1569  -0.3487  -0.8368   0.1316
  40 O_a :3d1-   0.0107  -0.0287   0.4738   0.8848  -0.6914  -2.2549  -2.2933
  46 O_a :4f1-  -0.0060  -0.0053  -0.0131  -0.0075   0.0519   0.0837  -0.0426
  48 O_a :4f1-  -0.0039   0.0032  -0.0809  -0.1362   0.0863   0.3601   0.4051
  52 O_a :5g1-   0.0012  -0.0021   0.0062   0.0150  -0.0214  -0.0344  -0.0553

    Orbital         8        9       10       11
   1 C_a :2py    0.0000  -0.3235   0.2928   0.6937
   2 C_a :2py   -0.0000   0.2518   0.0636  -0.1830
   3 C_a :2py   -0.0000  -1.1324   4.9779   1.4929
   4 C_a :2py   -0.0000  -3.9725   5.9308   4.0584
   5 C_a :2py   -0.0000   0.0141   0.0053  -0.0063
   8 C_a :2py    0.0000  -0.7230   0.1771   0.0535
  11 C_a :3d1-   0.0000   0.0178  -0.0468   0.0291
  12 C_a :3d1-   0.0000  -0.0427   0.8387  -0.0719
  13 C_a :3d1-   0.0000  -1.2602   3.8570   3.8117
  14 C_a :3d1-  -0.0000  -2.2290   1.3397   0.9167
  17 C_a :4f3-   0.0403  -0.0000  -0.0000  -0.0000
  18 C_a :4f1-  -0.0000  -0.0217   0.0360  -0.0187
  19 C_a :4f3-  -0.2099   0.0000   0.0000   0.0000
  20 C_a :4f1-   0.0000  -0.0419   0.8114   0.2781
  21 C_a :4f3-   1.1447   0.0000  -0.0000  -0.0000
  22 C_a :4f1-   0.0000  -1.8302   0.0672   1.9074
  24 C_a :5g1-   0.0000   0.0182   0.0900  -0.0119
  25 C_a :5g3-   0.0299   0.0000   0.0000   0.0000
  26 C_a :5g1-   0.0000  -0.2016   0.0908   0.2918
  27 O_a :2py   -0.0000  -0.2903   0.2568  -0.6341
  28 O_a :2py    0.0000  -0.0266   0.1155   0.2546
  29 O_a :2py    0.0000   0.3000  -0.8860  -1.1899
  30 O_a :2py    0.0000   5.1325  -9.0188  -5.1851
  31 O_a :2py    0.0000  -0.0011   0.0047   0.0184
  34 O_a :2py   -0.0000   2.0160  -1.8078  -1.1420
  38 O_a :3d1-  -0.0000   0.0201  -0.0319  -0.0305
  39 O_a :3d1-   0.0000  -0.4346   1.8205   0.5287
  40 O_a :3d1-   0.0000  -0.9028   4.0236   1.2816
  44 O_a :4f1-   0.0000  -0.0066   0.0186  -0.0027
  45 O_a :4f3-   0.0163  -0.0000   0.0000  -0.0000
  46 O_a :4f1-  -0.0000   0.0433  -0.2590   0.0166
  47 O_a :4f3-  -0.0744  -0.0000  -0.0000  -0.0000
  48 O_a :4f1-   0.0000  -0.0895  -0.9440  -0.0494
  52 O_a :5g1-   0.0000   0.0093   0.1601  -0.0707

 Molecular orbitals for symmetry species 4  (A2 )
 ------------------------------------------------

    Orbital         1        2        3        4        5        6        7
   3 C_a :3d2-  -0.0059  -0.0082  -0.0435  -0.0189   0.0347   0.0131   0.0000
   4 C_a :3d2-   0.0482   0.0175   0.0485  -0.0083  -0.2495   0.0754   0.0000
   5 C_a :3d2-  -0.1065   0.6410  -1.3521  -1.9843  -1.2967  -2.9815   0.0000
   6 C_a :3d2-   1.2053   0.9284   0.5592  -0.5390  -0.4038  -0.1054   0.0000
   8 C_a :4f2-   0.0030  -0.0066   0.0184  -0.0163   0.0331   0.0245   0.0000
   9 C_a :4f2-  -0.0324   0.1257  -0.2363  -0.1190  -0.6498  -0.5593   0.0000
  10 C_a :4f2-   0.1288   0.5655   0.4605  -2.1737  -0.5012  -1.5716   0.0000
  11 C_a :5g4-   0.0000   0.0000   0.0000   0.0000   0.0000   0.0000  -0.1966
  12 C_a :5g2-  -0.0064  -0.0119  -0.0207   0.0266   0.0019  -0.0188   0.0000
  13 C_a :5g4-   0.0000   0.0000   0.0000   0.0000   0.0000   0.0000   1.1034
  14 C_a :5g2-   0.0030   0.1366  -0.0424  -0.3092  -0.3540  -0.4397   0.0000
  17 O_a :3d2-   0.0024   0.0026  -0.0032   0.0076  -0.0330   0.0478   0.0000
  18 O_a :3d2-  -0.0031  -0.0422  -0.0030  -0.0733   0.0169  -0.1227   0.0000
  19 O_a :3d2-   0.0568  -0.0896   0.0831   0.5141  -0.2466   1.8857   0.0000
  20 O_a :3d2-  -0.2684  -2.1105   0.1831   2.4071   1.6712   1.7574   0.0000
  22 O_a :4f2-   0.0016   0.0017   0.0060  -0.0005  -0.0092  -0.0120   0.0000
  23 O_a :4f2-  -0.0141  -0.0064  -0.0376   0.0167   0.0305   0.0147   0.0000
  24 O_a :4f2-   0.0176   0.4059  -0.1560  -0.7434  -1.5509  -2.1759   0.0000
  26 O_a :5g2-  -0.0004   0.0107  -0.0091  -0.0145  -0.0288  -0.0227   0.0000
  27 O_a :5g4-   0.0000   0.0000   0.0000   0.0000   0.0000   0.0000   0.0126
  28 O_a :5g2-   0.0065  -0.0586   0.0635   0.0744   0.1987   0.2062   0.0000

    Orbital         8        9       10
   2 C_a :3d2-  -0.0159  -0.0031  -0.0087
   3 C_a :3d2-   0.0538   0.0114   0.0447
   4 C_a :3d2-  -1.1037  -0.2527  -0.9556
   5 C_a :3d2-   0.8969   0.7762  -2.7444
   6 C_a :3d2-  -0.3331   0.1902  -0.1224
   8 C_a :4f2-  -0.0371   0.0445   0.0888
   9 C_a :4f2-   0.7424  -0.5952  -2.3932
  10 C_a :4f2-  -0.2871   1.0186  -1.1058
  12 C_a :5g2-   0.0573  -0.1726   0.0485
  14 C_a :5g2-   0.1712   1.2307  -1.7548
  17 O_a :3d2-   0.0040  -0.0001   0.0323
  18 O_a :3d2-   0.0059   0.0194  -0.0963
  19 O_a :3d2-  -0.3057  -0.6092   3.3068
  20 O_a :3d2-   0.1078  -0.7417   1.3877
  22 O_a :4f2-  -0.0231  -0.0154   0.0243
  23 O_a :4f2-   0.2008   0.1223  -0.1528
  24 O_a :4f2-  -0.1515  -0.0090  -2.2132
  26 O_a :5g2-   0.0192   0.0146  -0.0334
  28 O_a :5g2-  -0.1711   0.0037   0.3429

  Total CPU  time used in SIRIUS :   8.56 seconds
  Total wall time used in SIRIUS :   8.57 seconds

 
     Date and time (Linux)  : Wed Jan 11 14:21:53 2023
     Host name              : cn023                                   


                     .---------------------------------------.
                     | End of Wave Function Section (SIRIUS) |
                     `---------------------------------------'



                 .------------------------------------------------.
                 | Starting in Dynamic Property Section (RESPONS) |
                 `------------------------------------------------'


 ----------------------------------------------------------------------------------------
  RESPONSE  -  an MCSCF, MC-srDFT, DFT, SOPPA and SOPPA-srDFT response property program
 ----------------------------------------------------------------------------------------


 -------- OUTPUT FROM RESPONSE INPUT PROCESSING --------




 Linear Response calculation
 ---------------------------

 Print level                                    : IPRLR  =   2
 Maximum number of iterations                   : MAXITL =  60
 Threshold for relative convergence             : THCLR  = 1.000D-03
 Maximum iterations in optimal orbital algorithm: MAXITO =   5

  9 B-frequencies  0.000000D+00  2.015931D-02  4.031862D-02  6.047794D-02  8.063725D-02
  1.007966D-01  1.209559D-01  1.411152D-01  1.612745D-01

    1 second order properties calculated with symmetry no.    1 and labels:

          ZDIPLEN 

    1 second order properties calculated with symmetry no.    2 and labels:

          XDIPLEN 

    1 second order properties calculated with symmetry no.    3 and labels:

          YDIPLEN 


   SCF energy         :     -112.789287171318250
 -- inactive part     :     -135.303358465877352
 -- nuclear repulsion :       22.514071294559098


                     ***************************************
                     *** RHF response calculation (TDHF) ***
                     ***************************************

 ----------------------------------------------------------------
 ----- Linear response calculation
 ----- Symmetry of excitation/property operator(s)    1  ( A1 )
 ----------------------------------------------------------------

 Number of excitations of this symmetry            0
 Number of response properties of this symmetry    1
 Number of C6/C8 properties of this symmetry       0


 Perturbation symmetry.     KSYMOP:           1
 Perturbation spin symmetry.TRPLET:           F
 Orbital variables.         KZWOPT:         507
 Configuration variables.   KZCONF:           0
 Total number of variables. KZVAR :         507


 RSPLR -- linear response calculation for symmetry 1  ( A1 )
 RSPLR -- operator label : ZDIPLEN 
 RSPLR -- operator spin  :   0
 RSPLR -- frequencies    :     0.000000  0.020159  0.040319  0.060478  0.080637
                               0.100797  0.120956  0.141115  0.161274



 ---  SOLVING SETS OF LINEAR EQUATIONS FOR LINEAR RESPONSE PROPERTIES ---

 Operator symmetry = 1  ( A1 ); triplet =   F


 ** RSPCTL MICROITERATION NUMBER    1

       No.  Residual tot.,    conf., and orb.    Bnorm      Frequency 
      ----------------------------------------------------------------
         1    3.60307D+00  0.00D+00  3.60D+00  2.59D+00    0.00000D+00
         2    3.60654D+00  0.00D+00  3.61D+00  2.59D+00    2.01593D-02
         3    3.61698D+00  0.00D+00  3.62D+00  2.61D+00    4.03186D-02
         4    3.63455D+00  0.00D+00  3.63D+00  2.64D+00    6.04779D-02
         5    3.65948D+00  0.00D+00  3.66D+00  2.68D+00    8.06372D-02
         6    3.69212D+00  0.00D+00  3.69D+00  2.73D+00    1.00797D-01
         7    3.73295D+00  0.00D+00  3.73D+00  2.79D+00    1.20956D-01
         8    3.78258D+00  0.00D+00  3.78D+00  2.87D+00    1.41115D-01
         9    3.84181D+00  0.00D+00  3.84D+00  2.96D+00    1.61274D-01

 ** RSPCTL MICROITERATION NUMBER    2

       No.  Residual tot.,    conf., and orb.    Bnorm      Frequency 
      ----------------------------------------------------------------
         1    7.18987D-01  0.00D+00  7.19D-01  3.15D+00    0.00000D+00
         2    7.20165D-01  0.00D+00  7.20D-01  3.16D+00    2.01593D-02
         3    7.23721D-01  0.00D+00  7.24D-01  3.18D+00    4.03186D-02
         4    7.29723D-01  0.00D+00  7.30D-01  3.21D+00    6.04779D-02
         5    7.38290D-01  0.00D+00  7.38D-01  3.26D+00    8.06372D-02
         6    7.49595D-01  0.00D+00  7.50D-01  3.33D+00    1.00797D-01
         7    7.63879D-01  0.00D+00  7.64D-01  3.42D+00    1.20956D-01
         8    7.81459D-01  0.00D+00  7.81D-01  3.52D+00    1.41115D-01
         9    8.02755D-01  0.00D+00  8.03D-01  3.65D+00    1.61274D-01

 ** RSPCTL MICROITERATION NUMBER    3

       No.  Residual tot.,    conf., and orb.    Bnorm      Frequency 
      ----------------------------------------------------------------
         1    6.95777D-02  0.00D+00  6.96D-02  3.17D+00    0.00000D+00
         2    6.97139D-02  0.00D+00  6.97D-02  3.18D+00    2.01593D-02
         3    7.01255D-02  0.00D+00  7.01D-02  3.20D+00    4.03186D-02
         4    7.08212D-02  0.00D+00  7.08D-02  3.23D+00    6.04779D-02
         5    7.18165D-02  0.00D+00  7.18D-02  3.29D+00    8.06372D-02
         6    7.31341D-02  0.00D+00  7.31D-02  3.35D+00    1.00797D-01
         7    7.48054D-02  0.00D+00  7.48D-02  3.44D+00    1.20956D-01
         8    7.68728D-02  0.00D+00  7.69D-02  3.55D+00    1.41115D-01
         9    7.93926D-02  0.00D+00  7.94D-02  3.68D+00    1.61274D-01

 ** RSPCTL MICROITERATION NUMBER    4

       No.  Residual tot.,    conf., and orb.    Bnorm      Frequency 
      ----------------------------------------------------------------
         1    5.90464D-03  0.00D+00  5.90D-03  3.17D+00    0.00000D+00
         2    5.92036D-03  0.00D+00  5.92D-03  3.18D+00    2.01593D-02
         3    5.96790D-03  0.00D+00  5.97D-03  3.20D+00    4.03186D-02
         4    6.04847D-03  0.00D+00  6.05D-03  3.23D+00    6.04779D-02
         5    6.16415D-03  0.00D+00  6.16D-03  3.29D+00    8.06372D-02
         6    6.31812D-03  0.00D+00  6.32D-03  3.35D+00    1.00797D-01
         7    6.51484D-03  0.00D+00  6.51D-03  3.44D+00    1.20956D-01
         8    6.76048D-03  0.00D+00  6.76D-03  3.55D+00    1.41115D-01
         9    7.06352D-03  0.00D+00  7.06D-03  3.68D+00    1.61274D-01

 ** RSPCTL MICROITERATION NUMBER    5

       No.  Residual tot.,    conf., and orb.    Bnorm      Frequency 
      ----------------------------------------------------------------
         1    8.98186D-04  0.00D+00  8.98D-04  3.17D+00    0.00000D+00
         2    9.02101D-04  0.00D+00  9.02D-04  3.18D+00    2.01593D-02
         3    9.13954D-04  0.00D+00  9.14D-04  3.20D+00    4.03186D-02
         4    9.34077D-04  0.00D+00  9.34D-04  3.23D+00    6.04779D-02
         5    9.63044D-04  0.00D+00  9.63D-04  3.29D+00    8.06372D-02
         6    1.00170D-03  0.00D+00  1.00D-03  3.35D+00    1.00797D-01
         7    1.05123D-03  0.00D+00  1.05D-03  3.44D+00    1.20956D-01
         8    1.11321D-03  0.00D+00  1.11D-03  3.55D+00    1.41115D-01
         9    1.18972D-03  0.00D+00  1.19D-03  3.68D+00    1.61274D-01

 *** THE REQUESTED    9 SOLUTION VECTORS CONVERGED

 Convergence of RSP solution vectors, threshold = 1.00D-03
 ---------------------------------------------------------------
 (dimension of paired reduced space:   90)
 RSP solution vector no.    1; norm of residual   2.84D-04
 RSP solution vector no.    2; norm of residual   2.84D-04
 RSP solution vector no.    3; norm of residual   2.86D-04
 RSP solution vector no.    4; norm of residual   2.89D-04
 RSP solution vector no.    5; norm of residual   2.93D-04
 RSP solution vector no.    6; norm of residual   2.99D-04
 RSP solution vector no.    7; norm of residual   3.05D-04
 RSP solution vector no.    8; norm of residual   3.14D-04
 RSP solution vector no.    9; norm of residual   3.24D-04

 *** RSPCTL MICROITERATIONS CONVERGED


           Final output of second order properties from linear response
           ------------------------------------------------------------


@ Spin symmetry of operators: singlet

 Note that minus the linear response function: - << A; B >>(omega) is printed.
 The results are of quadratic accuracy using Sellers formula.

@ FREQUENCY INDEPENDENT SECOND ORDER PROPERTIES

@ -<< ZDIPLEN  ; ZDIPLEN  >> =  1.447713905736E+01

@ FREQUENCY DEPENDENT SECOND ORDER PROPERTIES WITH FREQUENCY :

@    a.u.:  2.0159312D-02
@    cm-1:  4.4244576D+03
@    eV  :  5.4856280D-01
@  kJ/mol:  5.2928267D+01
@    nm  :  2.2601640D+03

@ -<< ZDIPLEN  ; ZDIPLEN  >> =  1.449397075401E+01

@ FREQUENCY DEPENDENT SECOND ORDER PROPERTIES WITH FREQUENCY :

@    a.u.:  4.0318625D-02
@    cm-1:  8.8489153D+03
@    eV  :  1.0971256D+00
@  kJ/mol:  1.0585653D+02
@    nm  :  1.1300820D+03

@ -<< ZDIPLEN  ; ZDIPLEN  >> =  1.454475832717E+01

@ FREQUENCY DEPENDENT SECOND ORDER PROPERTIES WITH FREQUENCY :

@    a.u.:  6.0477937D-02
@    cm-1:  1.3273373D+04
@    eV  :  1.6456884D+00
@  kJ/mol:  1.5878480D+02
@    nm  :  7.5338801D+02

@ -<< ZDIPLEN  ; ZDIPLEN  >> =  1.463039334354E+01

@ FREQUENCY DEPENDENT SECOND ORDER PROPERTIES WITH FREQUENCY :

@    a.u.:  8.0637250D-02
@    cm-1:  1.7697831D+04
@    eV  :  2.1942512D+00
@  kJ/mol:  2.1171307D+02
@    nm  :  5.6504101D+02

@ -<< ZDIPLEN  ; ZDIPLEN  >> =  1.475241017417E+01

@ FREQUENCY DEPENDENT SECOND ORDER PROPERTIES WITH FREQUENCY :

@    a.u.:  1.0079656D-01
@    cm-1:  2.2122288D+04
@    eV  :  2.7428140D+00
@  kJ/mol:  2.6464133D+02
@    nm  :  4.5203281D+02

@ -<< ZDIPLEN  ; ZDIPLEN  >> =  1.491306365483E+01

@ FREQUENCY DEPENDENT SECOND ORDER PROPERTIES WITH FREQUENCY :

@    a.u.:  1.2095587D-01
@    cm-1:  2.6546746D+04
@    eV  :  3.2913768D+00
@  kJ/mol:  3.1756960D+02
@    nm  :  3.7669400D+02

@ -<< ZDIPLEN  ; ZDIPLEN  >> =  1.511544872931E+01

@ FREQUENCY DEPENDENT SECOND ORDER PROPERTIES WITH FREQUENCY :

@    a.u.:  1.4111519D-01
@    cm-1:  3.0971203D+04
@    eV  :  3.8399396D+00
@  kJ/mol:  3.7049787D+02
@    nm  :  3.2288058D+02

@ -<< ZDIPLEN  ; ZDIPLEN  >> =  1.536367527934E+01

@ FREQUENCY DEPENDENT SECOND ORDER PROPERTIES WITH FREQUENCY :

@    a.u.:  1.6127450D-01
@    cm-1:  3.5395661D+04
@    eV  :  4.3885024D+00
@  kJ/mol:  4.2342613D+02
@    nm  :  2.8252050D+02

@ -<< ZDIPLEN  ; ZDIPLEN  >> =  1.566311908621E+01


 Time used in linear response calculation is     10.15 CPU seconds for symmetry 1
 ----------------------------------------------------------------
 ----- Linear response calculation
 ----- Symmetry of excitation/property operator(s)    2  ( B1 )
 ----------------------------------------------------------------

 Number of excitations of this symmetry            0
 Number of response properties of this symmetry    1
 Number of C6/C8 properties of this symmetry       0


 Perturbation symmetry.     KSYMOP:           2
 Perturbation spin symmetry.TRPLET:           F
 Orbital variables.         KZWOPT:         364
 Configuration variables.   KZCONF:           0
 Total number of variables. KZVAR :         364


 RSPLR -- linear response calculation for symmetry 2  ( B1 )
 RSPLR -- operator label : XDIPLEN 
 RSPLR -- operator spin  :   0
 RSPLR -- frequencies    :     0.000000  0.020159  0.040319  0.060478  0.080637
                               0.100797  0.120956  0.141115  0.161274



 ---  SOLVING SETS OF LINEAR EQUATIONS FOR LINEAR RESPONSE PROPERTIES ---

 Operator symmetry = 2  ( B1 ); triplet =   F


 ** RSPCTL MICROITERATION NUMBER    1

       No.  Residual tot.,    conf., and orb.    Bnorm      Frequency 
      ----------------------------------------------------------------
         1    9.39627D-01  0.00D+00  9.40D-01  2.79D+00    0.00000D+00
         2    9.41802D-01  0.00D+00  9.42D-01  2.80D+00    2.01593D-02
         3    9.48421D-01  0.00D+00  9.48D-01  2.82D+00    4.03186D-02
         4    9.59788D-01  0.00D+00  9.60D-01  2.87D+00    6.04779D-02
         5    9.76439D-01  0.00D+00  9.76D-01  2.94D+00    8.06372D-02
         6    9.99207D-01  0.00D+00  9.99D-01  3.03D+00    1.00797D-01
         7    1.02932D+00  0.00D+00  1.03D+00  3.16D+00    1.20956D-01
         8    1.06857D+00  0.00D+00  1.07D+00  3.31D+00    1.41115D-01
         9    1.11955D+00  0.00D+00  1.12D+00  3.50D+00    1.61274D-01

 ** RSPCTL MICROITERATION NUMBER    2

       No.  Residual tot.,    conf., and orb.    Bnorm      Frequency 
      ----------------------------------------------------------------
         1    1.43532D-01  0.00D+00  1.44D-01  2.86D+00    0.00000D+00
         2    1.44212D-01  0.00D+00  1.44D-01  2.87D+00    2.01593D-02
         3    1.46292D-01  0.00D+00  1.46D-01  2.90D+00    4.03186D-02
         4    1.49901D-01  0.00D+00  1.50D-01  2.96D+00    6.04779D-02
         5    1.55268D-01  0.00D+00  1.55D-01  3.04D+00    8.06372D-02
         6    1.62762D-01  0.00D+00  1.63D-01  3.15D+00    1.00797D-01
         7    1.72949D-01  0.00D+00  1.73D-01  3.29D+00    1.20956D-01
         8    1.86698D-01  0.00D+00  1.87D-01  3.48D+00    1.41115D-01
         9    2.05364D-01  0.00D+00  2.05D-01  3.73D+00    1.61274D-01

 ** RSPCTL MICROITERATION NUMBER    3

       No.  Residual tot.,    conf., and orb.    Bnorm      Frequency 
      ----------------------------------------------------------------
         1    1.71849D-02  0.00D+00  1.72D-02  2.86D+00    0.00000D+00
         2    1.72798D-02  0.00D+00  1.73D-02  2.87D+00    2.01593D-02
         3    1.75702D-02  0.00D+00  1.76D-02  2.90D+00    4.03186D-02
         4    1.80731D-02  0.00D+00  1.81D-02  2.96D+00    6.04779D-02
         5    1.88193D-02  0.00D+00  1.88D-02  3.04D+00    8.06372D-02
         6    1.98581D-02  0.00D+00  1.99D-02  3.15D+00    1.00797D-01
         7    2.12642D-02  0.00D+00  2.13D-02  3.30D+00    1.20956D-01
         8    2.31517D-02  0.00D+00  2.32D-02  3.49D+00    1.41115D-01
         9    2.56972D-02  0.00D+00  2.57D-02  3.74D+00    1.61274D-01

 ** RSPCTL MICROITERATION NUMBER    4

       No.  Residual tot.,    conf., and orb.    Bnorm      Frequency 
      ----------------------------------------------------------------
         1    1.45974D-03  0.00D+00  1.46D-03  2.86D+00    0.00000D+00
         2    1.47219D-03  0.00D+00  1.47D-03  2.87D+00    2.01593D-02
         3    1.51035D-03  0.00D+00  1.51D-03  2.90D+00    4.03186D-02
         4    1.57681D-03  0.00D+00  1.58D-03  2.96D+00    6.04779D-02
         5    1.67622D-03  0.00D+00  1.68D-03  3.04D+00    8.06372D-02
         6    1.81604D-03  0.00D+00  1.82D-03  3.15D+00    1.00797D-01
         7    2.00765D-03  0.00D+00  2.01D-03  3.30D+00    1.20956D-01
         8    2.26847D-03  0.00D+00  2.27D-03  3.49D+00    1.41115D-01
         9    2.62559D-03  0.00D+00  2.63D-03  3.74D+00    1.61274D-01

 *** THE REQUESTED    9 SOLUTION VECTORS CONVERGED

 Convergence of RSP solution vectors, threshold = 1.00D-03
 ---------------------------------------------------------------
 (dimension of paired reduced space:   72)
 RSP solution vector no.    1; norm of residual   5.10D-04
 RSP solution vector no.    2; norm of residual   5.13D-04
 RSP solution vector no.    3; norm of residual   5.20D-04
 RSP solution vector no.    4; norm of residual   5.33D-04
 RSP solution vector no.    5; norm of residual   5.52D-04
 RSP solution vector no.    6; norm of residual   5.77D-04
 RSP solution vector no.    7; norm of residual   6.09D-04
 RSP solution vector no.    8; norm of residual   6.51D-04
 RSP solution vector no.    9; norm of residual   7.02D-04

 *** RSPCTL MICROITERATIONS CONVERGED


           Final output of second order properties from linear response
           ------------------------------------------------------------


@ Spin symmetry of operators: singlet

 Note that minus the linear response function: - << A; B >>(omega) is printed.
 The results are of quadratic accuracy using Sellers formula.

@ FREQUENCY INDEPENDENT SECOND ORDER PROPERTIES

@ -<< XDIPLEN  ; XDIPLEN  >> =  1.126982384852E+01

@ FREQUENCY DEPENDENT SECOND ORDER PROPERTIES WITH FREQUENCY :

@    a.u.:  2.0159312D-02
@    cm-1:  4.4244576D+03
@    eV  :  5.4856280D-01
@  kJ/mol:  5.2928267D+01
@    nm  :  2.2601640D+03

@ -<< XDIPLEN  ; XDIPLEN  >> =  1.128690265501E+01

@ FREQUENCY DEPENDENT SECOND ORDER PROPERTIES WITH FREQUENCY :

@    a.u.:  4.0318625D-02
@    cm-1:  8.8489153D+03
@    eV  :  1.0971256D+00
@  kJ/mol:  1.0585653D+02
@    nm  :  1.1300820D+03

@ -<< XDIPLEN  ; XDIPLEN  >> =  1.133870150863E+01

@ FREQUENCY DEPENDENT SECOND ORDER PROPERTIES WITH FREQUENCY :

@    a.u.:  6.0477937D-02
@    cm-1:  1.3273373D+04
@    eV  :  1.6456884D+00
@  kJ/mol:  1.5878480D+02
@    nm  :  7.5338801D+02

@ -<< XDIPLEN  ; XDIPLEN  >> =  1.142696773312E+01

@ FREQUENCY DEPENDENT SECOND ORDER PROPERTIES WITH FREQUENCY :

@    a.u.:  8.0637250D-02
@    cm-1:  1.7697831D+04
@    eV  :  2.1942512D+00
@  kJ/mol:  2.1171307D+02
@    nm  :  5.6504101D+02

@ -<< XDIPLEN  ; XDIPLEN  >> =  1.155482700019E+01

@ FREQUENCY DEPENDENT SECOND ORDER PROPERTIES WITH FREQUENCY :

@    a.u.:  1.0079656D-01
@    cm-1:  2.2122288D+04
@    eV  :  2.7428140D+00
@  kJ/mol:  2.6464133D+02
@    nm  :  4.5203281D+02

@ -<< XDIPLEN  ; XDIPLEN  >> =  1.172715554852E+01

@ FREQUENCY DEPENDENT SECOND ORDER PROPERTIES WITH FREQUENCY :

@    a.u.:  1.2095587D-01
@    cm-1:  2.6546746D+04
@    eV  :  3.2913768D+00
@  kJ/mol:  3.1756960D+02
@    nm  :  3.7669400D+02

@ -<< XDIPLEN  ; XDIPLEN  >> =  1.195122690600E+01

@ FREQUENCY DEPENDENT SECOND ORDER PROPERTIES WITH FREQUENCY :

@    a.u.:  1.4111519D-01
@    cm-1:  3.0971203D+04
@    eV  :  3.8399396D+00
@  kJ/mol:  3.7049787D+02
@    nm  :  3.2288058D+02

@ -<< XDIPLEN  ; XDIPLEN  >> =  1.223782302217E+01

@ FREQUENCY DEPENDENT SECOND ORDER PROPERTIES WITH FREQUENCY :

@    a.u.:  1.6127450D-01
@    cm-1:  3.5395661D+04
@    eV  :  4.3885024D+00
@  kJ/mol:  4.2342613D+02
@    nm  :  2.8252050D+02

@ -<< XDIPLEN  ; XDIPLEN  >> =  1.260319509739E+01


 Time used in linear response calculation is      8.19 CPU seconds for symmetry 2
 ----------------------------------------------------------------
 ----- Linear response calculation
 ----- Symmetry of excitation/property operator(s)    3  ( B2 )
 ----------------------------------------------------------------

 Number of excitations of this symmetry            0
 Number of response properties of this symmetry    1
 Number of C6/C8 properties of this symmetry       0


 Perturbation symmetry.     KSYMOP:           3
 Perturbation spin symmetry.TRPLET:           F
 Orbital variables.         KZWOPT:         364
 Configuration variables.   KZCONF:           0
 Total number of variables. KZVAR :         364


 RSPLR -- linear response calculation for symmetry 3  ( B2 )
 RSPLR -- operator label : YDIPLEN 
 RSPLR -- operator spin  :   0
 RSPLR -- frequencies    :     0.000000  0.020159  0.040319  0.060478  0.080637
                               0.100797  0.120956  0.141115  0.161274



 ---  SOLVING SETS OF LINEAR EQUATIONS FOR LINEAR RESPONSE PROPERTIES ---

 Operator symmetry = 3  ( B2 ); triplet =   F


 ** RSPCTL MICROITERATION NUMBER    1

       No.  Residual tot.,    conf., and orb.    Bnorm      Frequency 
      ----------------------------------------------------------------
         1    9.52856D-01  0.00D+00  9.53D-01  2.79D+00    0.00000D+00
         2    9.55259D-01  0.00D+00  9.55D-01  2.79D+00    2.01593D-02
         3    9.62576D-01  0.00D+00  9.63D-01  2.82D+00    4.03186D-02
         4    9.75139D-01  0.00D+00  9.75D-01  2.87D+00    6.04779D-02
         5    9.93538D-01  0.00D+00  9.94D-01  2.94D+00    8.06372D-02
         6    1.01869D+00  0.00D+00  1.02D+00  3.03D+00    1.00797D-01
         7    1.05194D+00  0.00D+00  1.05D+00  3.15D+00    1.20956D-01
         8    1.09523D+00  0.00D+00  1.10D+00  3.31D+00    1.41115D-01
         9    1.15142D+00  0.00D+00  1.15D+00  3.50D+00    1.61274D-01

 ** RSPCTL MICROITERATION NUMBER    2

       No.  Residual tot.,    conf., and orb.    Bnorm      Frequency 
      ----------------------------------------------------------------
         1    1.48633D-01  0.00D+00  1.49D-01  2.86D+00    0.00000D+00
         2    1.49274D-01  0.00D+00  1.49D-01  2.87D+00    2.01593D-02
         3    1.51238D-01  0.00D+00  1.51D-01  2.90D+00    4.03186D-02
         4    1.54649D-01  0.00D+00  1.55D-01  2.96D+00    6.04779D-02
         5    1.59734D-01  0.00D+00  1.60D-01  3.04D+00    8.06372D-02
         6    1.66862D-01  0.00D+00  1.67D-01  3.15D+00    1.00797D-01
         7    1.76597D-01  0.00D+00  1.77D-01  3.29D+00    1.20956D-01
         8    1.89817D-01  0.00D+00  1.90D-01  3.48D+00    1.41115D-01
         9    2.07900D-01  0.00D+00  2.08D-01  3.73D+00    1.61274D-01

 ** RSPCTL MICROITERATION NUMBER    3

       No.  Residual tot.,    conf., and orb.    Bnorm      Frequency 
      ----------------------------------------------------------------
         1    1.73535D-02  0.00D+00  1.74D-02  2.86D+00    0.00000D+00
         2    1.74377D-02  0.00D+00  1.74D-02  2.87D+00    2.01593D-02
         3    1.76962D-02  0.00D+00  1.77D-02  2.90D+00    4.03186D-02
         4    1.81471D-02  0.00D+00  1.81D-02  2.96D+00    6.04779D-02
         5    1.88238D-02  0.00D+00  1.88D-02  3.04D+00    8.06372D-02
         6    1.97796D-02  0.00D+00  1.98D-02  3.15D+00    1.00797D-01
         7    2.10968D-02  0.00D+00  2.11D-02  3.30D+00    1.20956D-01
         8    2.29016D-02  0.00D+00  2.29D-02  3.49D+00    1.41115D-01
         9    2.53919D-02  0.00D+00  2.54D-02  3.74D+00    1.61274D-01

 ** RSPCTL MICROITERATION NUMBER    4

       No.  Residual tot.,    conf., and orb.    Bnorm      Frequency 
      ----------------------------------------------------------------
         1    1.38072D-03  0.00D+00  1.38D-03  2.86D+00    0.00000D+00
         2    1.39681D-03  0.00D+00  1.40D-03  2.87D+00    2.01593D-02
         3    1.44636D-03  0.00D+00  1.45D-03  2.90D+00    4.03186D-02
         4    1.53331D-03  0.00D+00  1.53D-03  2.96D+00    6.04779D-02
         5    1.66474D-03  0.00D+00  1.66D-03  3.04D+00    8.06372D-02
         6    1.85164D-03  0.00D+00  1.85D-03  3.15D+00    1.00797D-01
         7    2.11048D-03  0.00D+00  2.11D-03  3.30D+00    1.20956D-01
         8    2.46593D-03  0.00D+00  2.47D-03  3.49D+00    1.41115D-01
         9    2.95582D-03  0.00D+00  2.96D-03  3.74D+00    1.61274D-01

 *** THE REQUESTED    9 SOLUTION VECTORS CONVERGED

 Convergence of RSP solution vectors, threshold = 1.00D-03
 ---------------------------------------------------------------
 (dimension of paired reduced space:   72)
 RSP solution vector no.    1; norm of residual   4.83D-04
 RSP solution vector no.    2; norm of residual   4.87D-04
 RSP solution vector no.    3; norm of residual   4.98D-04
 RSP solution vector no.    4; norm of residual   5.18D-04
 RSP solution vector no.    5; norm of residual   5.48D-04
 RSP solution vector no.    6; norm of residual   5.88D-04
 RSP solution vector no.    7; norm of residual   6.40D-04
 RSP solution vector no.    8; norm of residual   7.07D-04
 RSP solution vector no.    9; norm of residual   7.91D-04

 *** RSPCTL MICROITERATIONS CONVERGED


           Final output of second order properties from linear response
           ------------------------------------------------------------


@ Spin symmetry of operators: singlet

 Note that minus the linear response function: - << A; B >>(omega) is printed.
 The results are of quadratic accuracy using Sellers formula.

@ FREQUENCY INDEPENDENT SECOND ORDER PROPERTIES

@ -<< YDIPLEN  ; YDIPLEN  >> =  1.126982385772E+01

@ FREQUENCY DEPENDENT SECOND ORDER PROPERTIES WITH FREQUENCY :

@    a.u.:  2.0159312D-02
@    cm-1:  4.4244576D+03
@    eV  :  5.4856280D-01
@  kJ/mol:  5.2928267D+01
@    nm  :  2.2601640D+03

@ -<< YDIPLEN  ; YDIPLEN  >> =  1.128690266448E+01

@ FREQUENCY DEPENDENT SECOND ORDER PROPERTIES WITH FREQUENCY :

@    a.u.:  4.0318625D-02
@    cm-1:  8.8489153D+03
@    eV  :  1.0971256D+00
@  kJ/mol:  1.0585653D+02
@    nm  :  1.1300820D+03

@ -<< YDIPLEN  ; YDIPLEN  >> =  1.133870151897E+01

@ FREQUENCY DEPENDENT SECOND ORDER PROPERTIES WITH FREQUENCY :

@    a.u.:  6.0477937D-02
@    cm-1:  1.3273373D+04
@    eV  :  1.6456884D+00
@  kJ/mol:  1.5878480D+02
@    nm  :  7.5338801D+02

@ -<< YDIPLEN  ; YDIPLEN  >> =  1.142696774502E+01

@ FREQUENCY DEPENDENT SECOND ORDER PROPERTIES WITH FREQUENCY :

@    a.u.:  8.0637250D-02
@    cm-1:  1.7697831D+04
@    eV  :  2.1942512D+00
@  kJ/mol:  2.1171307D+02
@    nm  :  5.6504101D+02

@ -<< YDIPLEN  ; YDIPLEN  >> =  1.155482701450E+01

@ FREQUENCY DEPENDENT SECOND ORDER PROPERTIES WITH FREQUENCY :

@    a.u.:  1.0079656D-01
@    cm-1:  2.2122288D+04
@    eV  :  2.7428140D+00
@  kJ/mol:  2.6464133D+02
@    nm  :  4.5203281D+02

@ -<< YDIPLEN  ; YDIPLEN  >> =  1.172715556644E+01

@ FREQUENCY DEPENDENT SECOND ORDER PROPERTIES WITH FREQUENCY :

@    a.u.:  1.2095587D-01
@    cm-1:  2.6546746D+04
@    eV  :  3.2913768D+00
@  kJ/mol:  3.1756960D+02
@    nm  :  3.7669400D+02

@ -<< YDIPLEN  ; YDIPLEN  >> =  1.195122692923E+01

@ FREQUENCY DEPENDENT SECOND ORDER PROPERTIES WITH FREQUENCY :

@    a.u.:  1.4111519D-01
@    cm-1:  3.0971203D+04
@    eV  :  3.8399396D+00
@  kJ/mol:  3.7049787D+02
@    nm  :  3.2288058D+02

@ -<< YDIPLEN  ; YDIPLEN  >> =  1.223782305332E+01

@ FREQUENCY DEPENDENT SECOND ORDER PROPERTIES WITH FREQUENCY :

@    a.u.:  1.6127450D-01
@    cm-1:  3.5395661D+04
@    eV  :  4.3885024D+00
@  kJ/mol:  4.2342613D+02
@    nm  :  2.8252050D+02

@ -<< YDIPLEN  ; YDIPLEN  >> =  1.260319514061E+01


 Time used in linear response calculation is      8.20 CPU seconds for symmetry 3

  Total CPU  time used in RESPONSE:  26.55 seconds
  Total wall time used in RESPONSE:  26.59 seconds


                   .-------------------------------------------.
                   | End of Dynamic Property Section (RESPONS) |
                   `-------------------------------------------'

  Total CPU  time used in DALTON:  35.86 seconds
  Total wall time used in DALTON:  35.94 seconds

 
     Date and time (Linux)  : Wed Jan 11 14:22:20 2023
     Host name              : cn023                                   
