

     ************************************************************************
     *************** Dalton - An Electronic Structure Program ***************
     ************************************************************************

    This is output from DALTON release Dalton2020.0 (2020)
         ( Web site: http://daltonprogram.org )

   ----------------------------------------------------------------------------

    NOTE:
     
    Dalton is an experimental code for the evaluation of molecular
    properties using (MC)SCF, DFT, CI, and CC wave functions.
    The authors accept no responsibility for the performance of
    the code or for the correctness of the results.
     
    The code (in whole or part) is provided under a licence and
    is not to be reproduced for further distribution without
    the written permission of the authors or their representatives.
     
    See the home page "http://daltonprogram.org" for further information.
     
    If results obtained with this code are published,
    the appropriate citations would be both of:
     
       K. Aidas, C. Angeli, K. L. Bak, V. Bakken, R. Bast,
       L. Boman, O. Christiansen, R. Cimiraglia, S. Coriani,
       P. Dahle, E. K. Dalskov, U. Ekstroem,
       T. Enevoldsen, J. J. Eriksen, P. Ettenhuber, B. Fernandez,
       L. Ferrighi, H. Fliegl, L. Frediani, K. Hald, A. Halkier,
       C. Haettig, H. Heiberg, T. Helgaker, A. C. Hennum,
       H. Hettema, E. Hjertenaes, S. Hoest, I.-M. Hoeyvik,
       M. F. Iozzi, B. Jansik, H. J. Aa. Jensen, D. Jonsson,
       P. Joergensen, J. Kauczor, S. Kirpekar,
       T. Kjaergaard, W. Klopper, S. Knecht, R. Kobayashi, H. Koch,
       J. Kongsted, A. Krapp, K. Kristensen, A. Ligabue,
       O. B. Lutnaes, J. I. Melo, K. V. Mikkelsen, R. H. Myhre,
       C. Neiss, C. B. Nielsen, P. Norman, J. Olsen,
       J. M. H. Olsen, A. Osted, M. J. Packer, F. Pawlowski,
       T. B. Pedersen, P. F. Provasi, S. Reine, Z. Rinkevicius,
       T. A. Ruden, K. Ruud, V. Rybkin, P. Salek, C. C. M. Samson,
       A. Sanchez de Meras, T. Saue, S. P. A. Sauer,
       B. Schimmelpfennig, K. Sneskov, A. H. Steindal,
       K. O. Sylvester-Hvid, P. R. Taylor, A. M. Teale,
       E. I. Tellgren, D. P. Tew, A. J. Thorvaldsen, L. Thoegersen,
       O. Vahtras, M. A. Watson, D. J. D. Wilson, M. Ziolkowski
       and H. Agren,
       "The Dalton quantum chemistry program system",
       WIREs Comput. Mol. Sci. 2014, 4:269–284 (doi: 10.1002/wcms.1172)
     
    and
     
       Dalton, a molecular electronic structure program,
       Release Dalton2020.0 (2020), see http://daltonprogram.org
   ----------------------------------------------------------------------------

    Authors in alphabetical order (Major contribution(s) in parenthesis):

  Kestutis Aidas,           Vilnius University,           Lithuania   (QM/MM)
  Celestino Angeli,         University of Ferrara,        Italy       (NEVPT2)
  Keld L. Bak,              UNI-C,                        Denmark     (AOSOPPA, non-adiabatic coupling, magnetic properties)
  Vebjoern Bakken,          University of Oslo,           Norway      (DALTON; geometry optimizer, symmetry detection)
  Radovan Bast,             UiT The Arctic U. of Norway,  Norway      (DALTON installation and execution frameworks)
  Pablo Baudin,             University of Valencia,       Spain       (Cholesky excitation energies)
  Linus Boman,              NTNU,                         Norway      (Cholesky decomposition and subsystems)
  Bruno N. Cabral Tenorio,  Technical Univ. of Denmark,   Denmark     (Lanczos-based CC methods)
  Ove Christiansen,         Aarhus University,            Denmark     (CC module)
  Renzo Cimiraglia,         University of Ferrara,        Italy       (NEVPT2)
  Sonia Coriani,            Technical Univ. of Denmark,   Denmark     (CC and RESPONS modules)
  Janusz Cukras,            University of Warsaw,         Poland      (MChD in RESPONS)
  Paal Dahle,               University of Oslo,           Norway      (Parallelization)
  Erik K. Dalskov,          UNI-C,                        Denmark     (SOPPA)
  Thomas Enevoldsen,        Univ. of Southern Denmark,    Denmark     (SOPPA)
  Janus J. Eriksen,         Aarhus University,            Denmark     (Polarizable embedding, TDA)
  Rasmus Faber,             Technical Univ. of Denmark,   Denmark     (Vib.avg. NMR w. SOPPA, parallel AO-SOPPA, CVS-CC and EOMCC)
  Tobias Fahleson,          KTH Stockholm,                Sweden      (Damped cubic response)
  Berta Fernandez,          U. of Santiago de Compostela, Spain       (Doublet spin, ESR in RESPONS)
  Lara Ferrighi,            Aarhus University,            Denmark     (PCM Cubic response)
  Heike Fliegl,             University of Oslo,           Norway      (CCSD(R12))
  Luca Frediani,            UiT The Arctic U. of Norway,  Norway      (PCM)
  Emmanuel Fromager,        Univ. Strasbourg,             France      (MC-srDFT)
  Bin Gao,                  UiT The Arctic U. of Norway,  Norway      (Gen1Int library)
  Andre S. P. Gomes,        CNRS/Universite de Lille,     France      (Frozen density embedding)
  Christof Haettig,         Ruhr-University Bochum,       Germany     (CC module)
  Kasper Hald,              Aarhus University,            Denmark     (CC module)
  Asger Halkier,            Aarhus University,            Denmark     (CC module)
  Frederik Beyer Hansen,    University of Copenhagen,     Denmark     (Parallel AO-SOPPA)
  Erik D. Hedegaard,        Univ. of Southern Denmark,    Denmark     (Polarizable embedding, QM/MM, and MC-srDFT)
  Hanne Heiberg,            University of Oslo,           Norway      (Geometry analysis, selected one-electron integrals)
  Trygve Helgaker,          University of Oslo,           Norway      (DALTON; ABACUS, ERI, DFT modules, London, and much more)
  Alf Christian Hennum,     University of Oslo,           Norway      (Parity violation)
  Hinne Hettema,            University of Auckland,       New Zealand (Quadratic response in RESPONS; SIRIUS supersymmetry)
  Eirik Hjertenaes,         NTNU,                         Norway      (Cholesky decomposition)
  Pi A. B. Haase,           University of Copenhagen,     Denmark     (Triplet AO-SOPPA)
  Maria Francesca Iozzi,    University of Oslo,           Norway      (RPA)
  Christoph Jacob           TU Braunschweig               Germany     (Frozen density embedding)
  Brano Jansik              Technical Univ. of Ostrava    Czech Rep.  (DFT cubic response)
  Hans Joergen Aa. Jensen,  Univ. of Southern Denmark,    Denmark     (DALTON; SIRIUS, RESPONS, ABACUS, MC-srDFT, and much more)
  Dan Jonsson,              UiT The Arctic U. of Norway,  Norway      (Cubic response in RESPONS module)
  Poul Joergensen,          Aarhus University,            Denmark     (RESPONS, ABACUS, and CC modules)
  Maciej Kaminski,          University of Warsaw,         Poland      (CPPh in RESPONS)
  Joanna Kauczor,           Linkoeping University,        Sweden      (Complex polarization propagator (CPP) module)
  Sheela Kirpekar,          Univ. of Southern Denmark,    Denmark     (Mass-velocity & Darwin integrals)
  Erik Kjellgren,           Univ. of Southern Denmark,    Denmark     (MC-srDFT)
  Wim Klopper,              KIT Karlsruhe,                Germany     (R12 code in CC, SIRIUS, and ABACUS modules)
  Stefan Knecht,            ETH Zurich,                   Switzerland (Parallel CI and MCSCF, MC-srDFT)
  Rika Kobayashi,           Australian National Univ.,    Australia   (DIIS in CC, London in MCSCF)
  Henrik Koch,              NTNU,                         Norway      (CC module, Cholesky decomposition)
  Jacob Kongsted,           Univ. of Southern Denmark,    Denmark     (Polarizable embedding, polarizable density embedding, QM/MM)
  Andrea Ligabue,           University of Modena,         Italy       (CTOCD, AOSOPPA)
  Nanna H. List             Univ. of Southern Denmark,    Denmark     (Polarizable embedding)
  Ola B. Lutnaes,           University of Oslo,           Norway      (DFT Hessian)
  Juan I. Melo,             University of Buenos Aires,   Argentina   (LRESC, Relativistic Effects on NMR Shieldings)
  Kurt V. Mikkelsen,        University of Copenhagen,     Denmark     (MC-SCRF and QM/MM)
  Rolf H. Myhre,            NTNU,                         Norway      (Subsystems and CC3)
  Christian Neiss,          Univ. Erlangen-Nuernberg,     Germany     (CCSD(R12))
  Christian B. Nielsen,     University of Copenhagen,     Denmark     (QM/MM)
  Patrick Norman,           KTH Stockholm,                Sweden      (Cubic response and complex frequency response in RESPONS)
  Jeppe Olsen,              Aarhus University,            Denmark     (SIRIUS CI/density modules)
  Jogvan Magnus H. Olsen,   Aarhus University,            Denmark     (Polarizable embedding and polarizable density embedding)
  Anders Osted,             Copenhagen University,        Denmark     (QM/MM)
  Martin J. Packer,         University of Sheffield,      UK          (SOPPA)
  Filip Pawlowski,          Kazimierz Wielki University,  Poland      (CC3)
  Morten N. Pedersen,       Univ. of Southern Denmark,    Denmark     (Polarizable embedding)
  Thomas B. Pedersen,       University of Oslo,           Norway      (Cholesky decomposition)
  Patricio F. Provasi,      University of Northeastern,   Argentina   (Analysis of coupling constants in localized orbitals)
  Peter Reinholdt,          Univ. of Southern Denmark,    Denmark     (Polarizable embedding and polarizable density embedding)
  Zilvinas Rinkevicius,     KTH Stockholm,                Sweden      (open-shell DFT, ESR)
  Elias Rudberg,            KTH Stockholm,                Sweden      (DFT grid and basis info)
  Torgeir A. Ruden,         University of Oslo,           Norway      (Numerical derivatives in ABACUS)
  Kenneth Ruud,             UiT The Arctic U. of Norway,  Norway      (DALTON; ABACUS magnetic properties and much more)
  Pawel Salek,              KTH Stockholm,                Sweden      (DALTON; DFT code)
  Claire C. M. Samson       University of Karlsruhe       Germany     (Boys localization, r12 integrals in ERI)
  Alfredo Sanchez de Meras, University of Valencia,       Spain       (CC module, Cholesky decomposition)
  Trond Saue,               Paul Sabatier University,     France      (direct Fock matrix construction)
  Stephan P. A. Sauer,      University of Copenhagen,     Denmark     (SOPPA(CCSD), SOPPA prop., AOSOPPA, vibrational g-factors)
  Bernd Schimmelpfennig,    Forschungszentrum Karlsruhe,  Germany     (AMFI module)
  Anna K. Schnack-Petersen, University of Copenhagen,     Denmark     (RPA(D) and HRPA(D) properties in AOSOPPA)
  Kristian Sneskov,         Aarhus University,            Denmark     (Polarizable embedding, QM/MM)
  Arnfinn H. Steindal,      UiT The Arctic U. of Norway,  Norway      (parallel QM/MM, polarizable embedding)
  Casper Steinmann,         Aalborg University,           Denmark     (QFIT, polarizable embedding)
  K. O. Sylvester-Hvid,     University of Copenhagen,     Denmark     (MC-SCRF)
  Peter R. Taylor,          VLSCI/Univ. of Melbourne,     Australia   (Symmetry handling ABACUS, integral transformation)
  Andrew M. Teale,          University of Nottingham,     England     (DFT-AC, DFT-D)
  David P. Tew,             University of Bristol,        England     (CCSD(R12))
  Julien Toulouse,          Sorbonne Univ.,               France      (MC-srDFT)
  Olav Vahtras,             KTH Stockholm,                Sweden      (Triplet response, spin-orbit, ESR, TDDFT, open-shell DFT)
  Lucas Visscher,           Vrije Universiteit Amsterdam, Netherlands (Frozen density embedding)
  David J. Wilson,          La Trobe University,          Australia   (DFT Hessian and DFT magnetizabilities)
  Hans Agren,               KTH Stockholm,                Sweden      (SIRIUS module, RESPONS, MC-SCRF solvation)
 --------------------------------------------------------------------------------

     Date and time (Linux)  : Wed Jan 11 14:16:47 2023
     Host name              : cn023                                   

 * Work memory size             :    64000000 =  488.28 megabytes.

 * Directories for basis set searches:
   1) /gpfs/projects/rjh/adrian/fd_compare/dalton/hf/CO/dipole
   2) /gpfs/projects/rjh/adrian/dalton/build/basis


Compilation information
-----------------------

 Who compiled             | ahurtado
 Host                     | sn-mem
 System                   | Linux-3.10.0-1160.24.1.el7.x86_64
 CMake generator          | Unix Makefiles
 Processor                | x86_64
 64-bit integers          | OFF
 MPI                      | ON
 Fortran compiler         | /gpfs/software/intel/oneAPI/2021_4/mpi/2021.4.0/bi
                          | n/mpif90
 Fortran compiler version | GNU Fortran (GCC) 11.2.0
 C compiler               | /gpfs/software/intel/oneAPI/2021_4/mpi/2021.4.0/bi
                          | n/mpicc
 C compiler version       | gcc (GCC) 11.2.0
 C++ compiler             | /gpfs/software/intel/oneAPI/2021_4/mpi/2021.4.0/bi
                          | n/mpicxx
 C++ compiler version     | unknown
 BLAS                     | /gpfs/software/intel/oneAPI/2021_4/mkl/2021.4.0/li
                          | b/intel64/libmkl_gf_lp64.so;/gpfs/software/intel/o
                          | neAPI/2021_4/mkl/2021.4.0/lib/intel64/libmkl_seque
                          | ntial.so;/gpfs/software/intel/oneAPI/2021_4/mkl/20
                          | 21.4.0/lib/intel64/libmkl_core.so;/usr/lib64/libpt
                          | hread.so;/usr/lib64/libm.so
 LAPACK                   | /gpfs/software/intel/oneAPI/2021_4/mkl/2021.4.0/li
                          | b/intel64/libmkl_lapack95_lp64.a;/gpfs/software/in
                          | tel/oneAPI/2021_4/mkl/2021.4.0/lib/intel64/libmkl_
                          | gf_lp64.so
 Static linking           | OFF
 Last Git revision        | 66052b3af5ea7225e31178bf9a8b031913c72190
 Git branch               | (HEAD detached at Dalton2020.0)
 Configuration time       | 2023-01-11 13:33:37.731835

 * MPI parallel run using 20 processes.


   Content of the .dal input file
 ----------------------------------

**DALTON INPUT
.RUN RESPONSE
.DIRECT
**WAVE FUNCTIONS
.HF
**RESPONSE
*LINEAR
.DIPLEN
.FREQUENCIES
9
0.0 0.0201593125 0.040318625 0.060477937499999995 0.08063725 0.10079656249999999 0.12095587499999999
**END OF DALTON INPUT


   Content of the .mol file
 ----------------------------

BASIS
d-aug-cc-pVQZ
blah
blah
Atomtype=2 Atomic
Charge=6 Atoms=1
C_a 0.000000000000 0.000000000000 0.000000000000
Charge=8 Atoms=1
O_a 0.000000000000 0.000000000000 2.132000000000


       *******************************************************************
       *********** Output from DALTON general input processing ***********
       *******************************************************************

 --------------------------------------------------------------------------------
   Overall default print level:    0
   Print level for DALTON.STAT:    1

    Parallel calculation using MPI
    AO-direct calculation (in sections where implemented)
    HERMIT 1- and 2-electron integral sections will be executed
    "Old" integral transformation used (limited to max 255 basis functions)
    Wave function sections will be executed (SIRIUS module)
    Dynamic molecular response properties section will be executed (RESPONSE module)
 --------------------------------------------------------------------------------


   ****************************************************************************
   *************** Output of molecule and basis set information ***************
   ****************************************************************************


    The two title cards from your ".mol" input:
    ------------------------------------------------------------------------
 1: blah                                                                    
 2: blah                                                                    
    ------------------------------------------------------------------------

  Atomic type no.    1
  --------------------
  Nuclear charge:   6.00000
  Number of symmetry independent centers:    1
  Number of basis sets to read;    2
  Basis set file used for this atomic type with Z =   6 :
     "/gpfs/projects/rjh/adrian/dalton/build/basis/aug-cc-pVQZ"

  Atomic type no.    2
  --------------------
  Nuclear charge:   8.00000
  Number of symmetry independent centers:    1
  Number of basis sets to read;    2
  Basis set file used for this atomic type with Z =   8 :
     "/gpfs/projects/rjh/adrian/dalton/build/basis/aug-cc-pVQZ"


                      SYMADD: Requested addition of symmetry
                      --------------------------------------

 Symmetry test threshold:  5.00E-06

@   The molecule is centered at center of mass and rotated
@   so principal axes of inertia are along coordinate axes.

 Symmetry class found: C(oo,v)        

 Symmetry Independent Centres             
 ----------------------------
O_a    8 :      0.00000000     0.00000000     0.91388025  Isotope  1
C_a    6 :      0.00000000     0.00000000    -1.21811975  Isotope  1

 The following symmetry elements were found:   X  Y     


                         SYMGRP: Point group information
                         -------------------------------

@    Full point group is: C(oo,v)        
@    Represented as:      C2v

@  * The irrep name for each symmetry:    1: A1     2: B1     3: B2     4: A2 

   * The point group was generated by:

      Reflection in the yz-plane
      Reflection in the xz-plane

   * Group multiplication table

        |  E   C2z  Oxz  Oyz
   -----+--------------------
     E  |  E   C2z  Oxz  Oyz
    C2z | C2z   E   Oyz  Oxz
    Oxz | Oxz  Oyz   E   C2z
    Oyz | Oyz  Oxz  C2z   E 

   * Character table

        |  E   C2z  Oxz  Oyz
   -----+--------------------
    A1  |   1    1    1    1
    B1  |   1   -1    1   -1
    B2  |   1   -1   -1    1
    A2  |   1    1   -1   -1

   * Direct product table

        | A1   B1   B2   A2 
   -----+--------------------
    A1  | A1   B1   B2   A2 
    B1  | B1   A1   A2   B2 
    B2  | B2   A2   A1   B1 
    A2  | A2   B2   B1   A1 


                                 Isotopic Masses
                                 ---------------

                           C_a        12.000000
                           O_a        15.994915

                       Total mass:    27.994915 amu
                       Natural abundance:  98.663 %

 Center-of-mass coordinates (a.u.):    0.000000    0.000000    0.000000
 Center-of-mass coordinates (Angs):    0.000000    0.000000    0.000000


  Atoms and basis sets
  --------------------

  Number of atom types :    2
  Total number of atoms:    2

  Basis set used is "d-aug-cc-pVQZ" from the basis set library.

  label    atoms   charge   prim   cont     basis
  ----------------------------------------------------------------------
  C_          1    6.0000   118   105      [14s8p5d4f3g|7s6p5d4f3g]                           
  O_          1    8.0000   118   105      [14s8p5d4f3g|7s6p5d4f3g]                           
  ----------------------------------------------------------------------
  total:      2   14.0000   236   210
  ----------------------------------------------------------------------
  Spherical harmonic basis used.

  Threshold for neglecting AO integrals:  1.00D-12


  Cartesian Coordinates (a.u.)
  ----------------------------

  Total number of coordinates:    6
  C_a     :     1  x   0.0000000000    2  y   0.0000000000    3  z  -1.2181197471
  O_a     :     4  x   0.0000000000    5  y   0.0000000000    6  z   0.9138802529


  Symmetry Coordinates
  --------------------

  Number of coordinates in each symmetry:     2    2    2    0

  Symmetry  A1  ( 1)

    1   C_a   z    3
    2   O_a   z    6

  Symmetry  B1  ( 2)

    3   C_a   x    1
    4   O_a   x    4

  Symmetry  B2  ( 3)

    5   C_a   y    2
    6   O_a   y    5


   Interatomic separations (in Angstrom):
   --------------------------------------

            C_a         O_a   
            ------      ------
 C_a   :    0.000000
 O_a   :    1.128206    0.000000


  Max    interatomic separation is    1.1282 Angstrom (    2.1320 Bohr)
  between atoms    2 and    1, "O_a   " and "C_a   ".

  Min YX interatomic separation is    1.1282 Angstrom (    2.1320 Bohr)


  Bond distances (Angstrom):
  --------------------------

                  atom 1     atom 2       distance
                  ------     ------       --------
  bond distance:  O_a        C_a          1.128206




 Principal moments of inertia (u*A**2) and principal axes
 --------------------------------------------------------

   IA       0.000000          0.000000    0.000000    1.000000
   IB       8.726914          0.000000    1.000000    0.000000
   IC       8.726914          1.000000    0.000000    0.000000


 Rotational constants
 --------------------

@    The molecule is linear.

               B =        57910.39 MHz     (    1.931683 cm-1)


@  Nuclear repulsion energy :   22.514071294559 Hartree


  Symmetry Orbitals
  -----------------

  Number of orbitals in each symmetry:          80   50   50   30


  Symmetry  A1 ( 1)

    1     C_a      1s         1
    2     C_a      1s         2
    3     C_a      1s         3
    4     C_a      1s         4
    5     C_a      1s         5
    6     C_a      1s         6
    7     C_a      1s         7
    8     C_a      2pz       10
    9     C_a      2pz       13
   10     C_a      2pz       16
   11     C_a      2pz       19
   12     C_a      2pz       22
   13     C_a      2pz       25
   14     C_a      3d0       28
   15     C_a      3d2+      30
   16     C_a      3d0       33
   17     C_a      3d2+      35
   18     C_a      3d0       38
   19     C_a      3d2+      40
   20     C_a      3d0       43
   21     C_a      3d2+      45
   22     C_a      3d0       48
   23     C_a      3d2+      50
   24     C_a      4f0       54
   25     C_a      4f2+      56
   26     C_a      4f0       61
   27     C_a      4f2+      63
   28     C_a      4f0       68
   29     C_a      4f2+      70
   30     C_a      4f0       75
   31     C_a      4f2+      77
   32     C_a      5g0       83
   33     C_a      5g2+      85
   34     C_a      5g4+      87
   35     C_a      5g0       92
   36     C_a      5g2+      94
   37     C_a      5g4+      96
   38     C_a      5g0      101
   39     C_a      5g2+     103
   40     C_a      5g4+     105
   41     O_a      1s       106
   42     O_a      1s       107
   43     O_a      1s       108
   44     O_a      1s       109
   45     O_a      1s       110
   46     O_a      1s       111
   47     O_a      1s       112
   48     O_a      2pz      115
   49     O_a      2pz      118
   50     O_a      2pz      121
   51     O_a      2pz      124
   52     O_a      2pz      127
   53     O_a      2pz      130
   54     O_a      3d0      133
   55     O_a      3d2+     135
   56     O_a      3d0      138
   57     O_a      3d2+     140
   58     O_a      3d0      143
   59     O_a      3d2+     145
   60     O_a      3d0      148
   61     O_a      3d2+     150
   62     O_a      3d0      153
   63     O_a      3d2+     155
   64     O_a      4f0      159
   65     O_a      4f2+     161
   66     O_a      4f0      166
   67     O_a      4f2+     168
   68     O_a      4f0      173
   69     O_a      4f2+     175
   70     O_a      4f0      180
   71     O_a      4f2+     182
   72     O_a      5g0      188
   73     O_a      5g2+     190
   74     O_a      5g4+     192
   75     O_a      5g0      197
   76     O_a      5g2+     199
   77     O_a      5g4+     201
   78     O_a      5g0      206
   79     O_a      5g2+     208
   80     O_a      5g4+     210


  Symmetry  B1 ( 2)

   81     C_a      2px        8
   82     C_a      2px       11
   83     C_a      2px       14
   84     C_a      2px       17
   85     C_a      2px       20
   86     C_a      2px       23
   87     C_a      3d1+      29
   88     C_a      3d1+      34
   89     C_a      3d1+      39
   90     C_a      3d1+      44
   91     C_a      3d1+      49
   92     C_a      4f1+      55
   93     C_a      4f3+      57
   94     C_a      4f1+      62
   95     C_a      4f3+      64
   96     C_a      4f1+      69
   97     C_a      4f3+      71
   98     C_a      4f1+      76
   99     C_a      4f3+      78
  100     C_a      5g1+      84
  101     C_a      5g3+      86
  102     C_a      5g1+      93
  103     C_a      5g3+      95
  104     C_a      5g1+     102
  105     C_a      5g3+     104
  106     O_a      2px      113
  107     O_a      2px      116
  108     O_a      2px      119
  109     O_a      2px      122
  110     O_a      2px      125
  111     O_a      2px      128
  112     O_a      3d1+     134
  113     O_a      3d1+     139
  114     O_a      3d1+     144
  115     O_a      3d1+     149
  116     O_a      3d1+     154
  117     O_a      4f1+     160
  118     O_a      4f3+     162
  119     O_a      4f1+     167
  120     O_a      4f3+     169
  121     O_a      4f1+     174
  122     O_a      4f3+     176
  123     O_a      4f1+     181
  124     O_a      4f3+     183
  125     O_a      5g1+     189
  126     O_a      5g3+     191
  127     O_a      5g1+     198
  128     O_a      5g3+     200
  129     O_a      5g1+     207
  130     O_a      5g3+     209


  Symmetry  B2 ( 3)

  131     C_a      2py        9
  132     C_a      2py       12
  133     C_a      2py       15
  134     C_a      2py       18
  135     C_a      2py       21
  136     C_a      2py       24
  137     C_a      3d1-      27
  138     C_a      3d1-      32
  139     C_a      3d1-      37
  140     C_a      3d1-      42
  141     C_a      3d1-      47
  142     C_a      4f3-      51
  143     C_a      4f1-      53
  144     C_a      4f3-      58
  145     C_a      4f1-      60
  146     C_a      4f3-      65
  147     C_a      4f1-      67
  148     C_a      4f3-      72
  149     C_a      4f1-      74
  150     C_a      5g3-      80
  151     C_a      5g1-      82
  152     C_a      5g3-      89
  153     C_a      5g1-      91
  154     C_a      5g3-      98
  155     C_a      5g1-     100
  156     O_a      2py      114
  157     O_a      2py      117
  158     O_a      2py      120
  159     O_a      2py      123
  160     O_a      2py      126
  161     O_a      2py      129
  162     O_a      3d1-     132
  163     O_a      3d1-     137
  164     O_a      3d1-     142
  165     O_a      3d1-     147
  166     O_a      3d1-     152
  167     O_a      4f3-     156
  168     O_a      4f1-     158
  169     O_a      4f3-     163
  170     O_a      4f1-     165
  171     O_a      4f3-     170
  172     O_a      4f1-     172
  173     O_a      4f3-     177
  174     O_a      4f1-     179
  175     O_a      5g3-     185
  176     O_a      5g1-     187
  177     O_a      5g3-     194
  178     O_a      5g1-     196
  179     O_a      5g3-     203
  180     O_a      5g1-     205


  Symmetry  A2 ( 4)

  181     C_a      3d2-      26
  182     C_a      3d2-      31
  183     C_a      3d2-      36
  184     C_a      3d2-      41
  185     C_a      3d2-      46
  186     C_a      4f2-      52
  187     C_a      4f2-      59
  188     C_a      4f2-      66
  189     C_a      4f2-      73
  190     C_a      5g4-      79
  191     C_a      5g2-      81
  192     C_a      5g4-      88
  193     C_a      5g2-      90
  194     C_a      5g4-      97
  195     C_a      5g2-      99
  196     O_a      3d2-     131
  197     O_a      3d2-     136
  198     O_a      3d2-     141
  199     O_a      3d2-     146
  200     O_a      3d2-     151
  201     O_a      4f2-     157
  202     O_a      4f2-     164
  203     O_a      4f2-     171
  204     O_a      4f2-     178
  205     O_a      5g4-     184
  206     O_a      5g2-     186
  207     O_a      5g4-     193
  208     O_a      5g2-     195
  209     O_a      5g4-     202
  210     O_a      5g2-     204

  Symmetries of electric field:  B1 (2)  B2 (3)  A1 (1)

  Symmetries of magnetic field:  B2 (3)  B1 (2)  A2 (4)


                     .---------------------------------------.
                     | Starting in Integral Section (HERMIT) |
                     `---------------------------------------'



 ***************************************************************************************
 ****************** Output from **INTEGRALS input processing (HERMIT) ******************
 ***************************************************************************************


 - Using defaults, no **INTEGRALS input found

 Default print level:        1

 Calculation of one-electron Hamiltonian integrals.

 Center of mass  (bohr):      0.000000000000      0.000000000000      0.000000000000
 Operator center (bohr):      0.000000000000      0.000000000000      0.000000000000
 Gauge origin    (bohr):      0.000000000000      0.000000000000      0.000000000000
 Dipole origin   (bohr):      0.000000000000      0.000000000000      0.000000000000


     ************************************************************************
     ************************** Output from HERINT **************************
     ************************************************************************



                      Nuclear contribution to dipole moments
                      --------------------------------------

                 au               Debye          C m (/(10**-30)

      z      0.00232354         0.00590585         0.01969980


  Time used in GABGEN     is       0.48 seconds
  Total CPU  time used in HERMIT:   0.71 seconds
  Total wall time used in HERMIT:   0.71 seconds


                        .----------------------------------.
                        | End of Integral Section (HERMIT) |
                        `----------------------------------'



                   .--------------------------------------------.
                   | Starting in Wave Function Section (SIRIUS) |
                   `--------------------------------------------'


 *** Output from Huckel module :

     Using EWMO model:          T
     Using EHT  model:          F
     Number of Huckel orbitals each symmetry:    6    2    2    0

 EWMO - Energy Weighted Maximum Overlap - is a Huckel type method,
        which normally is better than Extended Huckel Theory.
 Reference: Linderberg and Ohrn, Propagators in Quantum Chemistry (Wiley, 1973)

 Huckel EWMO eigenvalues for symmetry :  1
          -20.685999     -11.349525      -1.578830      -0.796795      -0.456115
           -0.137637

 Huckel EWMO eigenvalues for symmetry :  2
           -0.717188      -0.305912

 Huckel EWMO eigenvalues for symmetry :  3
           -0.717188      -0.305912

 **********************************************************************
 *SIRIUS* a direct, restricted step, second order MCSCF program       *
 **********************************************************************

 
     Date and time (Linux)  : Wed Jan 11 14:16:48 2023
     Host name              : cn023                                   

 Title lines from ".mol" input file:
     blah                                                                    
     blah                                                                    

 Print level on unit LUPRI =   2 is   0
 Print level on unit LUW4  =   2 is   5

@    Restricted, closed shell Hartree-Fock calculation.

@    Time-dependent Hartree-Fock calculation (random phase approximation).
 Fock matrices are calculated directly and in parallel without use of integrals on disk.

 Initial molecular orbitals are obtained according to
 ".MOSTART EWMO  " input option

     Wave function specification
     ============================
@    Wave function type        --- HF ---
@    Number of closed shell electrons          14
@    Number of electrons in active shells       0
@    Total charge of the molecule               0

@    Spin multiplicity and 2 M_S                1         0
@    Total number of symmetries                 4 (point group: C2v)
@    Reference state symmetry                   1 (irrep name : A1 )

     Orbital specifications
     ======================
@    Abelian symmetry species          All |    1    2    3    4
@                                          |  A1   B1   B2   A2 
                                       --- |  ---  ---  ---  ---
@    Total number of orbitals          210 |   80   50   50   30
@    Number of basis functions         210 |   80   50   50   30

      ** Automatic occupation of RHF orbitals **

      -- Initial occupation of symmetries is determined from extended Huckel guess.           
      -- Initial occupation of symmetries is :
@    Occupied SCF orbitals               7 |    5    1    1    0

     Maximum number of Fock   iterations      0
     Maximum number of DIIS   iterations     60
     Maximum number of QC-SCF iterations     60
     Threshold for SCF convergence     1.00D-05


 ***********************************************
 ***** DIIS acceleration of SCF iterations *****
 ***********************************************

 C1-DIIS algorithm; max error vectors =    8

 Automatic occupation of symmetries with  14 electrons.

 Iter     Total energy    Error norm  Delta(E)    SCF occupation
 -----------------------------------------------------------------------------
   1  Screening settings (-IFTHRS, JTDIIS, DIFDEN, times)   -8    1    T  1.15D+00  1.15D+00
@  1  -112.502197718       2.45D+00  -1.13D+02     5   1   1   0
      Virial theorem: -V/T =      2.006513
@    MULPOP   C_a     0.95; O_a    -0.95; 
   1  Level shift: doubly occupied orbital energies shifted by -2.00D-01
 -----------------------------------------------------------------------------
   2  Screening settings (-IFTHRS, JTDIIS, DIFDEN, times)   -8    2    T  1.18D+00  1.18D+00
@  2  -112.774774479       5.32D-01  -2.73D-01     5   1   1   0
      Virial theorem: -V/T =      1.998332
@    MULPOP   C_a     0.50; O_a    -0.50; 
   2  Level shift: doubly occupied orbital energies shifted by -5.00D-02
 -----------------------------------------------------------------------------
   3  Screening settings (-IFTHRS, JTDIIS, DIFDEN, times)   -8    3    T  1.16D+00  1.16D+00
@  3  -112.787676145       1.28D-01  -1.29D-02     5   1   1   0
      Virial theorem: -V/T =      2.000888
@    MULPOP   C_a     0.53; O_a    -0.53; 
   3  Level shift: doubly occupied orbital energies shifted by -1.25D-02
 -----------------------------------------------------------------------------
   4  Screening settings (-IFTHRS, JTDIIS, DIFDEN, times)   -8    4    T  1.17D+00  1.17D+00
@  4  -112.788914345       6.02D-02  -1.24D-03     5   1   1   0
      Virial theorem: -V/T =      2.001843
@    MULPOP   C_a     0.49; O_a    -0.49; 
 -----------------------------------------------------------------------------
   5  Screening settings (-IFTHRS, JTDIIS, DIFDEN, times)  -12    5    F  1.18D+00  1.18D+00
@  5  -112.789091571       1.99D-02  -1.77D-04     5   1   1   0
      Virial theorem: -V/T =      2.001204
@    MULPOP   C_a     0.50; O_a    -0.50; 
 -----------------------------------------------------------------------------
   6  Screening settings (-IFTHRS, JTDIIS, DIFDEN, times)  -12    6    T  1.15D+00  1.15D+00
@  6  -112.789114623       3.08D-03  -2.31D-05     5   1   1   0
      Virial theorem: -V/T =      2.001364
@    MULPOP   C_a     0.50; O_a    -0.50; 
 -----------------------------------------------------------------------------
   7  Screening settings (-IFTHRS, JTDIIS, DIFDEN, times)  -12    7    T  1.17D+00  1.17D+00
@  7  -112.789115443       5.06D-04  -8.19D-07     5   1   1   0
      Virial theorem: -V/T =      2.001373
@    MULPOP   C_a     0.50; O_a    -0.50; 
 -----------------------------------------------------------------------------
   8  Screening settings (-IFTHRS, JTDIIS, DIFDEN, times)  -12    8    T  1.16D+00  1.16D+00
@  8  -112.789115469       1.10D-04  -2.67D-08     5   1   1   0
      Virial theorem: -V/T =      2.001375
@    MULPOP   C_a     0.50; O_a    -0.50; 
 -----------------------------------------------------------------------------
   9  Screening settings (-IFTHRS, JTDIIS, DIFDEN, times)  -12    9    T  1.17D+00  1.17D+00
@  9  -112.789115471       1.15D-05  -1.25D-09     5   1   1   0
      Virial theorem: -V/T =      2.001375
@    MULPOP   C_a     0.50; O_a    -0.50; 
 -----------------------------------------------------------------------------
  10  Screening settings (-IFTHRS, JTDIIS, DIFDEN, times)  -12   10    T  1.16D+00  1.16D+00
@ 10  -112.789115471       2.75D-06  -2.02D-11     5   1   1   0

@ *** DIIS converged in  10 iterations !
@     Converged SCF energy, gradient:   -112.789115470561    2.75D-06
    - total time used in SIRFCK :              0.00 seconds


 *** SCF orbital energy analysis ***

 Only the 20 lowest virtual orbital energies printed in each symmetry.

 Number of electrons :   14
 Orbital occupations :    5    1    1    0

 Sym       Hartree-Fock orbital energies

1 A1    -20.66527474   -11.36035763    -1.52176549    -0.80457818    -0.55488842
          0.01691634     0.02048503     0.05042780     0.07114624     0.07714878
          0.08900732     0.12121526     0.17449180     0.18876497     0.19474608
          0.26175497     0.27713969     0.28957594     0.34761208     0.36895530
          0.42246500     0.55020449     0.57361360     0.58332561     0.60967685

2 B1     -0.64034397     0.01926222     0.05058398     0.07696192     0.11701567
          0.14605227     0.19743962     0.27383756     0.28965847     0.31889240
          0.38741877     0.54488932     0.57109360     0.59291354     0.78528187
          0.88891621     0.89713007     0.99353247     1.05313901     1.10202813
          1.41435076

3 B2     -0.64034397     0.01926222     0.05058398     0.07696192     0.11701567
          0.14605227     0.19743962     0.27383756     0.28965847     0.31889240
          0.38741877     0.54488932     0.57109360     0.59291354     0.78528187
          0.88891621     0.89713007     0.99353247     1.05313901     1.10202813
          1.41435076

4 A2      0.07714878     0.18876497     0.27713969     0.36895530     0.58332561
          0.62716720     0.89369869     0.92560171     1.01023590     1.18995751
          1.55745297     1.59048844     1.82991021     2.10097669     2.47120168
          2.47743324     2.68047295     3.32478011     4.22867670     4.30846255

    E(LUMO) :     0.01691634 au (symmetry 1)
  - E(HOMO) :    -0.55488842 au (symmetry 1)
  ------------------------------------------
    gap     :     0.57180477 au

 --- Writing SIRIFC interface file

 CPU and wall time for SCF :      11.717      11.726


                       .-----------------------------------.
                       | --- Final results from SIRIUS --- |
                       `-----------------------------------'


@    Spin multiplicity:           1
@    Spatial symmetry:            1 ( irrep  A1  in C2v )
@    Total charge of molecule:    0

@    Final HF energy:            -112.789115470561                 
@    Nuclear repulsion:            22.514071294559
@    Electronic energy:          -135.303186765120

@    Final gradient norm:           0.000002750393

 
     Date and time (Linux)  : Wed Jan 11 14:17:00 2023
     Host name              : cn023                                   

File label for MO orbitals:  11Jan23   FOCKDIIS

 (Only coefficients > 0.0100 are printed.)

 Molecular orbitals for symmetry species 1  (A1 )
 ------------------------------------------------

    Orbital         1        2        3        4        5        6        7
   1 C_a :1s    -0.0000   0.9998  -0.0111  -0.0012   0.0030   0.0007  -0.0001
   2 C_a :1s    -0.0001   0.0012   0.4483   0.5735   0.6147   0.0510  -0.0147
   3 C_a :1s    -0.0003   0.0011  -0.0056  -0.0049  -0.0044   0.0356   0.0120
   4 C_a :1s    -0.0006  -0.0123  -0.1457  -0.0731   0.0697  -0.2664  -0.0216
   5 C_a :1s    -0.0025  -0.0012  -0.1263  -0.0825   0.1524  -2.0547  -0.4014
   6 C_a :1s    -0.0017  -0.0001  -0.0074  -0.0088   0.0114  -6.2761  -1.8017
   7 C_a :1s    -0.0003  -0.0001  -0.0008  -0.0019  -0.0059  -5.7943  -2.0145
   8 C_a :2pz    0.0004   0.0130   0.3416   0.2022  -0.7127  -0.0419   0.0071
   9 C_a :2pz   -0.0003  -0.0061  -0.0152  -0.0077   0.0143  -0.0023  -0.0049
  10 C_a :2pz    0.0005  -0.0083  -0.0897  -0.0354   0.0773  -0.3247  -0.0809
  11 C_a :2pz   -0.0002  -0.0003  -0.0764  -0.0254   0.0729  -1.1399  -0.3414
  12 C_a :2pz   -0.0002   0.0005   0.0011   0.0095  -0.0249  -1.6250  -1.1226
  13 C_a :2pz   -0.0001  -0.0000   0.0002   0.0009  -0.0023   0.2666  -2.2551
  14 C_a :3d0   -0.0001   0.0002   0.0118   0.0072  -0.0085   0.0018   0.0005
  16 C_a :3d0    0.0002  -0.0001   0.0259   0.0186  -0.0220  -0.0329  -0.0096
  18 C_a :3d0    0.0016   0.0007   0.0214   0.0206  -0.0215  -0.1773  -0.0084
  20 C_a :3d0    0.0004   0.0003   0.0019   0.0074  -0.0141  -0.2453   0.0095
  22 C_a :3d0   -0.0000   0.0000   0.0006   0.0025  -0.0055   0.0444  -0.4644
  26 C_a :4f0    0.0004   0.0002   0.0086   0.0094  -0.0041  -0.0226  -0.0036
  28 C_a :4f0    0.0009  -0.0000   0.0037  -0.0006  -0.0035  -0.0376   0.0395
  30 C_a :4f0    0.0001  -0.0002   0.0001   0.0016  -0.0033  -0.0176  -0.0023
  38 C_a :5g0    0.0003  -0.0002   0.0002  -0.0022  -0.0004  -0.0029   0.0123
  41 O_a :1s     1.0004  -0.0003  -0.0039  -0.0021  -0.0009  -0.0008   0.0006
  42 O_a :1s     0.0023   0.0012   0.8380  -0.4659  -0.0669   0.0178   0.0212
  44 O_a :1s    -0.0050   0.0003  -0.0609  -0.0595   0.0223   0.0773  -0.0098
  45 O_a :1s     0.0015   0.0052  -0.0571  -0.1481   0.0443   0.9923   0.1726
  46 O_a :1s     0.0031   0.0012   0.0206  -0.0114   0.0128   4.2102   1.3345
  47 O_a :1s     0.0009   0.0004   0.0040   0.0118   0.0022   8.3985   3.3730
  48 O_a :2pz   -0.0068  -0.0012  -0.2376  -0.7376   0.3757   0.0255   0.0063
  50 O_a :2pz    0.0030  -0.0023   0.0134   0.0416  -0.0127  -0.1048  -0.0277
  51 O_a :2pz   -0.0013  -0.0060   0.0121   0.0423  -0.0033  -0.4860  -0.1488
  52 O_a :2pz   -0.0009  -0.0018  -0.0089  -0.0274   0.0371  -1.3781  -0.1000
  53 O_a :2pz    0.0000  -0.0001  -0.0008  -0.0043   0.0070  -1.4939   1.2955
  56 O_a :3d0    0.0001   0.0006   0.0122   0.0129  -0.0082   0.0048   0.0018
  58 O_a :3d0    0.0005   0.0016   0.0252   0.0200  -0.0138   0.0409   0.0128
  60 O_a :3d0    0.0001   0.0032   0.0113   0.0217  -0.0030   0.0651  -0.0526
  62 O_a :3d0    0.0000   0.0007   0.0014   0.0052  -0.0068   0.1478  -0.0732
  68 O_a :4f0    0.0001  -0.0003  -0.0053  -0.0058   0.0011  -0.0039   0.0129
  70 O_a :4f0    0.0002  -0.0008  -0.0007  -0.0034  -0.0021  -0.0078   0.0447

    Orbital         8        9       10       11       12       13       14
   2 C_a :1s    -0.0682   0.0653  -0.0000  -0.0717   0.0642   0.1490   0.0000
   3 C_a :1s    -0.0100  -0.0775  -0.0000   0.0352  -0.0708   0.1434   0.0000
   4 C_a :1s    -0.5677   0.6120   0.0000  -0.1916  -1.1625  -1.3048  -0.0000
   5 C_a :1s    -1.2767   4.5907   0.0000  -2.6022  -1.5567  -8.0006   0.0000
   6 C_a :1s    -1.8959  14.8368   0.0000  -7.0443   0.7507 -22.5125   0.0000
   7 C_a :1s     1.2069   9.2230   0.0000  -2.7201   3.9563  -7.0390   0.0000
   8 C_a :2pz    0.0367  -0.0847  -0.0000   0.0570  -0.0359  -0.0605  -0.0000
   9 C_a :2pz   -0.0337   0.0203  -0.0000   0.0215  -0.0930  -0.0260   0.0000
  10 C_a :2pz   -0.0604   0.7051   0.0000  -0.4369   0.0342  -1.0811   0.0000
  11 C_a :2pz    1.1000   2.3471   0.0000  -2.0890   3.3458  -3.1040   0.0000
  12 C_a :2pz    3.6068   3.9414   0.0000  -2.3368   9.3755  -4.1695   0.0000
  13 C_a :2pz    2.5765   1.1207   0.0000   1.1937   2.2001  -0.2713  -0.0000
  16 C_a :3d0   -0.0058   0.0757  -0.0000  -0.0299  -0.0018  -0.1000   0.0000
  17 C_a :3d2+  -0.0000   0.0000   0.0046  -0.0000  -0.0000   0.0000   0.0212
  18 C_a :3d0    0.1636   0.2989  -0.0000  -0.3955   0.6136  -0.5017   0.0000
  19 C_a :3d2+  -0.0000  -0.0000   0.0446  -0.0000   0.0000  -0.0000  -0.5648
  20 C_a :3d0    0.4951   0.3410   0.0000  -0.7340   1.8828  -1.0091  -0.0000
  21 C_a :3d2+  -0.0000  -0.0000  -0.1332  -0.0000   0.0000   0.0000  -2.6179
  22 C_a :3d0    1.0384   0.5997   0.0000   1.2417   3.0434  -0.7607   0.0000
  23 C_a :3d2+  -0.0000   0.0000  -1.3807  -0.0000   0.0000   0.0000  -1.1805
  26 C_a :4f0    0.0202   0.0418  -0.0000  -0.0424   0.0736  -0.0645   0.0000
  27 C_a :4f2+  -0.0000  -0.0000   0.0027  -0.0000   0.0000  -0.0000  -0.0360
  28 C_a :4f0    0.0509  -0.0097  -0.0000  -0.2029   0.2199  -0.0845   0.0000
  29 C_a :4f2+  -0.0000  -0.0000   0.0903  -0.0000   0.0000  -0.0000  -0.3438
  30 C_a :4f0    0.0173   0.0406   0.0000   0.0679   0.3355  -0.4980  -0.0000
  31 C_a :4f2+  -0.0000  -0.0000  -0.2260  -0.0000   0.0000  -0.0000  -1.0044
  35 C_a :5g0    0.0074   0.0028  -0.0000  -0.0224   0.0213  -0.0012   0.0000
  36 C_a :5g2+  -0.0000   0.0000   0.0121  -0.0000   0.0000   0.0000  -0.0089
  38 C_a :5g0    0.0050  -0.0171  -0.0000  -0.0363   0.0409  -0.0302   0.0000
  39 C_a :5g2+   0.0000  -0.0000   0.0105   0.0000  -0.0000  -0.0000  -0.1098
  42 O_a :1s     0.0105   0.0808   0.0000   0.0115  -0.0496   0.0878  -0.0000
  43 O_a :1s     0.0018   0.0176  -0.0000  -0.0167   0.0162  -0.0312   0.0000
  44 O_a :1s    -0.0976  -0.0786   0.0000   0.2128  -0.3788   0.2046  -0.0000
  45 O_a :1s    -0.3175  -1.8651  -0.0000   1.7516  -1.6103   3.1597   0.0000
  46 O_a :1s    -0.1790  -9.5215  -0.0000   5.2385  -3.6059  16.0120  -0.0000
  47 O_a :1s    -0.0716 -18.5518  -0.0000   6.0827  -3.3537  18.7457  -0.0000
  48 O_a :2pz    0.0007   0.0542  -0.0000  -0.0310  -0.0211   0.0270   0.0000
  49 O_a :2pz    0.0056  -0.0119   0.0000   0.0029   0.0168   0.0132  -0.0000
  50 O_a :2pz    0.0179   0.2175   0.0000  -0.1463   0.1147  -0.3248  -0.0000
  51 O_a :2pz   -0.5786   1.2199   0.0000  -0.3519  -1.3343  -1.8781  -0.0000
  52 O_a :2pz   -2.9302   3.2372  -0.0000  -1.0072  -6.7385  -5.9927   0.0000
  53 O_a :2pz   -4.8565   0.7769  -0.0000  -1.8104  -5.2448  -1.7102   0.0000
  56 O_a :3d0   -0.0061  -0.0103   0.0000   0.0075  -0.0179   0.0177  -0.0000
  58 O_a :3d0    0.0581  -0.1010   0.0000   0.0250   0.1497   0.1586  -0.0000
  59 O_a :3d2+   0.0000   0.0000  -0.0267   0.0000  -0.0000   0.0000   0.0667
  60 O_a :3d0    0.3959  -0.0962   0.0000   0.0506   0.8920   0.5202   0.0000
  61 O_a :3d2+   0.0000   0.0000  -0.0991   0.0000  -0.0000   0.0000   1.0970
  62 O_a :3d0    0.9944  -0.3252  -0.0000  -0.3603   1.4968   2.3233  -0.0000
  63 O_a :3d2+   0.0000   0.0000   0.7012   0.0000  -0.0000  -0.0000   3.7305
  66 O_a :4f0   -0.0065   0.0130   0.0000   0.0040  -0.0158  -0.0177  -0.0000
  68 O_a :4f0   -0.0325  -0.0092  -0.0000  -0.0324  -0.0943  -0.0018   0.0000
  69 O_a :4f2+  -0.0000  -0.0000   0.0400  -0.0000   0.0000  -0.0000  -0.1117
  70 O_a :4f0   -0.1609  -0.0336   0.0000   0.0055  -0.1932  -0.3258  -0.0000
  71 O_a :4f2+  -0.0000  -0.0000  -0.0303  -0.0000   0.0000   0.0000  -0.7326
  78 O_a :5g0    0.0134   0.0099   0.0000   0.0112   0.0090   0.0257  -0.0000
  79 O_a :5g2+   0.0000   0.0000  -0.0010   0.0000  -0.0000  -0.0000   0.0981

    Orbital        15
   1 C_a :1s    -0.0111
   2 C_a :1s    -0.0232
   3 C_a :1s     0.0400
   4 C_a :1s    -0.8564
   5 C_a :1s    -5.8628
   6 C_a :1s   -16.5611
   7 C_a :1s    -5.1691
   8 C_a :2pz   -0.0634
   9 C_a :2pz   -0.0806
  10 C_a :2pz   -0.9689
  11 C_a :2pz   -2.5176
  12 C_a :2pz   -2.0489
  13 C_a :2pz   -0.4600
  16 C_a :3d0   -0.1105
  18 C_a :3d0    0.0604
  20 C_a :3d0    1.5421
  22 C_a :3d0    0.6997
  28 C_a :4f0    0.3395
  30 C_a :4f0    0.8087
  38 C_a :5g0    0.1412
  42 O_a :1s     0.1007
  44 O_a :1s    -0.1884
  45 O_a :1s     1.5027
  46 O_a :1s    11.5512
  47 O_a :1s    14.1091
  48 O_a :2pz    0.0704
  49 O_a :2pz    0.0318
  50 O_a :2pz   -0.2532
  51 O_a :2pz   -2.4672
  52 O_a :2pz   -6.5975
  53 O_a :2pz   -0.7126
  58 O_a :3d0    0.2269
  60 O_a :3d0    0.0600
  62 O_a :3d0   -1.4286
  66 O_a :4f0   -0.0306
  70 O_a :4f0    0.5362
  75 O_a :5g0    0.0165
  78 O_a :5g0   -0.0745

 Molecular orbitals for symmetry species 2  (B1 )
 ------------------------------------------------

    Orbital         1        2        3        4        5        6        7
   1 C_a :2px   -0.4432  -0.0120  -0.0011  -0.1957  -0.1237   0.5467   0.1778
   2 C_a :2px    0.0051  -0.0020   0.0052   0.0164   0.0013   0.0162  -0.0004
   3 C_a :2px    0.0717  -0.0664  -0.2752  -0.0669  -0.5484  -0.3593  -0.0076
   4 C_a :2px    0.0981  -0.1862  -1.4052  -0.8892  -2.5749  -2.3151  -1.0452
   5 C_a :2px    0.0167  -0.7588  -3.7923  -1.6736  -7.3187  -4.7823  -3.2717
   6 C_a :2px    0.0017  -2.2883  -2.8842   0.8816  -2.4940  -0.5521   0.0358
   7 C_a :3d1+  -0.0115   0.0013   0.0016   0.0023   0.0070  -0.0006  -0.0043
   8 C_a :3d1+  -0.0251  -0.0070  -0.0334   0.0091  -0.0615  -0.0464  -0.0257
   9 C_a :3d1+  -0.0199  -0.0109  -0.2420  -0.1571  -0.5077  -0.4697  -0.6539
  10 C_a :3d1+   0.0028   0.0253  -0.4026  -0.4226  -1.1058  -0.9287  -2.8287
  11 C_a :3d1+   0.0037  -0.4298  -0.9782   0.8129  -2.9094  -0.4665  -1.3281
  14 C_a :4f1+  -0.0045  -0.0048  -0.0352  -0.0105  -0.0767  -0.0551  -0.0740
  16 C_a :4f1+  -0.0093   0.0286  -0.0509  -0.1357  -0.1013  -0.1986  -0.4660
  18 C_a :4f1+   0.0012  -0.0049  -0.0045   0.0718  -0.2900   0.1004  -1.0224
  22 C_a :5g1+  -0.0000   0.0014  -0.0088  -0.0136  -0.0149  -0.0225  -0.0245
  24 C_a :5g1+  -0.0035   0.0080  -0.0038  -0.0280  -0.0162  -0.0270  -0.1478
  26 O_a :2px   -0.7974   0.0381  -0.0545   0.1902   0.1956  -0.3162  -0.1970
  27 O_a :2px    0.0024   0.0004  -0.0048  -0.0060  -0.0139  -0.0089  -0.0280
  28 O_a :2px   -0.0046  -0.0009   0.0468   0.0539   0.1174   0.0837   0.1821
  29 O_a :2px   -0.0166   0.0459   0.6500   0.5327   1.4536   1.1369   1.7444
  30 O_a :2px   -0.0365   0.4644   2.6529   1.2135   5.6886   4.1179   4.2233
  31 O_a :2px   -0.0057   1.8902   5.3557  -0.3200   5.8944   2.3732   0.5134
  33 O_a :3d1+   0.0178   0.0001   0.0022   0.0027   0.0034  -0.0077   0.0019
  34 O_a :3d1+   0.0365  -0.0124  -0.0841  -0.0345  -0.1908  -0.1524  -0.1722
  35 O_a :3d1+   0.0336  -0.0893  -0.3704  -0.0615  -0.6757  -0.5453   0.1314
  36 O_a :3d1+   0.0056  -0.1184  -0.8264  -0.5438  -0.6739  -1.7572   2.0975
  39 O_a :4f1+  -0.0075   0.0014   0.0107   0.0058   0.0221   0.0202   0.0177
  41 O_a :4f1+  -0.0124   0.0173   0.0410  -0.0205   0.1046   0.0319  -0.0020
  43 O_a :4f1+  -0.0064   0.0415   0.1380   0.0145   0.0999   0.2071  -0.6187
  47 O_a :5g1+   0.0023  -0.0013  -0.0027   0.0022  -0.0115  -0.0010  -0.0113
  49 O_a :5g1+   0.0032  -0.0070  -0.0149   0.0068  -0.0120  -0.0138   0.0816

    Orbital         8        9       10       11
   1 C_a :2px   -0.3890  -0.0000   0.2984  -0.3119
   2 C_a :2px    0.0245   0.0000  -0.0639  -0.0063
   3 C_a :2px   -1.5896   0.0000  -0.0661   1.1495
   4 C_a :2px   -7.5963   0.0000   1.7601   0.3526
   5 C_a :2px   -9.7508  -0.0000  -0.4414  -2.0449
   6 C_a :2px   -1.2610  -0.0000  -0.8673  -0.0286
   7 C_a :3d1+   0.0122  -0.0000   0.0036  -0.0088
   8 C_a :3d1+  -0.1726  -0.0000  -0.0433   0.1034
   9 C_a :3d1+  -1.1969   0.0000   0.4728  -0.3740
  10 C_a :3d1+  -1.2999   0.0000   1.7585  -4.2981
  11 C_a :3d1+  -1.9436  -0.0000  -1.1358  -0.7007
  14 C_a :4f1+  -0.1689   0.0000  -0.0153  -0.0590
  15 C_a :4f3+   0.0000  -0.0444  -0.0000   0.0000
  16 C_a :4f1+  -0.1424   0.0000   0.6306  -0.7814
  17 C_a :4f3+   0.0000   0.1947  -0.0000   0.0000
  18 C_a :4f1+   0.3083  -0.0000  -0.8074  -2.6268
  19 C_a :4f3+   0.0000  -1.2924  -0.0000   0.0000
  20 C_a :5g1+  -0.0141  -0.0000  -0.0058  -0.0116
  22 C_a :5g1+  -0.0444   0.0000   0.0530  -0.0214
  23 C_a :5g3+   0.0000   0.0407  -0.0000   0.0000
  24 C_a :5g1+   0.0600   0.0000   0.0739  -0.4437
  25 C_a :5g3+   0.0000  -0.1017  -0.0000   0.0000
  26 O_a :2px    0.0226   0.0000  -0.2213   0.2487
  27 O_a :2px   -0.0254  -0.0000   0.0209  -0.0187
  28 O_a :2px    0.2268  -0.0000  -0.1536   0.2141
  29 O_a :2px    3.1662  -0.0000  -1.4532   1.8769
  30 O_a :2px   12.1026   0.0000  -0.7693   1.9066
  31 O_a :2px    4.2397   0.0000   1.4214   0.3969
  33 O_a :3d1+   0.0165   0.0000  -0.0067  -0.0011
  34 O_a :3d1+  -0.4141   0.0000   0.0354  -0.0606
  35 O_a :3d1+  -2.2217   0.0000  -0.0650   2.1682
  36 O_a :3d1+  -4.0398   0.0000   0.6720   2.5222
  39 O_a :4f1+   0.0447  -0.0000  -0.0026   0.0311
  41 O_a :4f1+   0.2809   0.0000   0.1115  -0.3730
  42 O_a :4f3+  -0.0000  -0.0616   0.0000  -0.0000
  43 O_a :4f1+   0.7752   0.0000   0.2537  -1.0900
  44 O_a :4f3+  -0.0000   0.3232   0.0000  -0.0000
  47 O_a :5g1+  -0.0213  -0.0000  -0.0072   0.0198
  49 O_a :5g1+  -0.0842   0.0000  -0.0629   0.1656

 Molecular orbitals for symmetry species 3  (B2 )
 ------------------------------------------------

    Orbital         1        2        3        4        5        6        7
   1 C_a :2py   -0.4432  -0.0120  -0.0011  -0.1957  -0.1237   0.5467   0.1778
   2 C_a :2py    0.0051  -0.0020   0.0052   0.0164   0.0013   0.0162  -0.0004
   3 C_a :2py    0.0717  -0.0664  -0.2752  -0.0669  -0.5484  -0.3593  -0.0076
   4 C_a :2py    0.0981  -0.1862  -1.4052  -0.8892  -2.5749  -2.3151  -1.0452
   5 C_a :2py    0.0167  -0.7588  -3.7923  -1.6736  -7.3187  -4.7823  -3.2717
   6 C_a :2py    0.0017  -2.2883  -2.8842   0.8816  -2.4940  -0.5521   0.0358
   7 C_a :3d1-  -0.0115   0.0013   0.0016   0.0023   0.0070  -0.0006  -0.0043
   8 C_a :3d1-  -0.0251  -0.0070  -0.0334   0.0091  -0.0615  -0.0464  -0.0257
   9 C_a :3d1-  -0.0199  -0.0109  -0.2420  -0.1571  -0.5077  -0.4697  -0.6539
  10 C_a :3d1-   0.0028   0.0253  -0.4026  -0.4226  -1.1058  -0.9287  -2.8287
  11 C_a :3d1-   0.0037  -0.4298  -0.9782   0.8129  -2.9094  -0.4665  -1.3281
  15 C_a :4f1-  -0.0045  -0.0048  -0.0352  -0.0105  -0.0767  -0.0551  -0.0740
  17 C_a :4f1-  -0.0093   0.0286  -0.0509  -0.1357  -0.1013  -0.1986  -0.4660
  19 C_a :4f1-   0.0012  -0.0049  -0.0045   0.0718  -0.2900   0.1004  -1.0224
  23 C_a :5g1-  -0.0000   0.0014  -0.0088  -0.0136  -0.0149  -0.0225  -0.0245
  25 C_a :5g1-  -0.0035   0.0080  -0.0038  -0.0280  -0.0162  -0.0270  -0.1478
  26 O_a :2py   -0.7974   0.0381  -0.0545   0.1902   0.1956  -0.3162  -0.1970
  27 O_a :2py    0.0024   0.0004  -0.0048  -0.0060  -0.0139  -0.0089  -0.0280
  28 O_a :2py   -0.0046  -0.0009   0.0468   0.0539   0.1174   0.0837   0.1821
  29 O_a :2py   -0.0166   0.0459   0.6500   0.5327   1.4536   1.1369   1.7444
  30 O_a :2py   -0.0365   0.4644   2.6529   1.2135   5.6886   4.1179   4.2233
  31 O_a :2py   -0.0057   1.8902   5.3557  -0.3200   5.8944   2.3732   0.5134
  33 O_a :3d1-   0.0178   0.0001   0.0022   0.0027   0.0034  -0.0077   0.0019
  34 O_a :3d1-   0.0365  -0.0124  -0.0841  -0.0345  -0.1908  -0.1524  -0.1722
  35 O_a :3d1-   0.0336  -0.0893  -0.3704  -0.0615  -0.6757  -0.5453   0.1314
  36 O_a :3d1-   0.0056  -0.1184  -0.8264  -0.5438  -0.6739  -1.7572   2.0975
  40 O_a :4f1-  -0.0075   0.0014   0.0107   0.0058   0.0221   0.0202   0.0177
  42 O_a :4f1-  -0.0124   0.0173   0.0410  -0.0205   0.1046   0.0319  -0.0020
  44 O_a :4f1-  -0.0064   0.0415   0.1380   0.0145   0.0999   0.2071  -0.6187
  48 O_a :5g1-   0.0023  -0.0013  -0.0027   0.0022  -0.0115  -0.0010  -0.0113
  50 O_a :5g1-   0.0032  -0.0070  -0.0149   0.0068  -0.0120  -0.0138   0.0816

    Orbital         8        9       10       11
   1 C_a :2py   -0.3890   0.0000   0.2984  -0.3119
   2 C_a :2py    0.0245  -0.0000  -0.0639  -0.0063
   3 C_a :2py   -1.5896  -0.0000  -0.0661   1.1495
   4 C_a :2py   -7.5963  -0.0000   1.7601   0.3526
   5 C_a :2py   -9.7508   0.0000  -0.4414  -2.0449
   6 C_a :2py   -1.2610   0.0000  -0.8673  -0.0286
   7 C_a :3d1-   0.0122   0.0000   0.0036  -0.0088
   8 C_a :3d1-  -0.1726   0.0000  -0.0433   0.1034
   9 C_a :3d1-  -1.1969  -0.0000   0.4728  -0.3740
  10 C_a :3d1-  -1.2999  -0.0000   1.7585  -4.2981
  11 C_a :3d1-  -1.9436   0.0000  -1.1358  -0.7007
  14 C_a :4f3-  -0.0000  -0.0444   0.0000  -0.0000
  15 C_a :4f1-  -0.1689  -0.0000  -0.0153  -0.0590
  16 C_a :4f3-  -0.0000   0.1947   0.0000  -0.0000
  17 C_a :4f1-  -0.1424  -0.0000   0.6306  -0.7814
  18 C_a :4f3-  -0.0000  -1.2924   0.0000  -0.0000
  19 C_a :4f1-   0.3083   0.0000  -0.8074  -2.6268
  21 C_a :5g1-  -0.0141   0.0000  -0.0058  -0.0116
  22 C_a :5g3-  -0.0000   0.0407   0.0000  -0.0000
  23 C_a :5g1-  -0.0444  -0.0000   0.0530  -0.0214
  24 C_a :5g3-  -0.0000  -0.1017   0.0000  -0.0000
  25 C_a :5g1-   0.0600  -0.0000   0.0739  -0.4437
  26 O_a :2py    0.0226  -0.0000  -0.2213   0.2487
  27 O_a :2py   -0.0254   0.0000   0.0209  -0.0187
  28 O_a :2py    0.2268   0.0000  -0.1536   0.2141
  29 O_a :2py    3.1662   0.0000  -1.4532   1.8769
  30 O_a :2py   12.1026   0.0000  -0.7693   1.9066
  31 O_a :2py    4.2397  -0.0000   1.4214   0.3969
  33 O_a :3d1-   0.0165  -0.0000  -0.0067  -0.0011
  34 O_a :3d1-  -0.4141  -0.0000   0.0354  -0.0606
  35 O_a :3d1-  -2.2217  -0.0000  -0.0650   2.1682
  36 O_a :3d1-  -4.0398  -0.0000   0.6720   2.5222
  40 O_a :4f1-   0.0447   0.0000  -0.0026   0.0311
  41 O_a :4f3-   0.0000  -0.0616  -0.0000   0.0000
  42 O_a :4f1-   0.2809  -0.0000   0.1115  -0.3730
  43 O_a :4f3-   0.0000   0.3232  -0.0000   0.0000
  44 O_a :4f1-   0.7752  -0.0000   0.2537  -1.0900
  48 O_a :5g1-  -0.0213   0.0000  -0.0072   0.0198
  50 O_a :5g1-  -0.0842  -0.0000  -0.0629   0.1656

 Molecular orbitals for symmetry species 4  (A2 )
 ------------------------------------------------

    Orbital         1        2        3        4        5        6        7
   2 C_a :3d2-  -0.0046   0.0212   0.0180  -0.0034  -0.0550   0.0398   0.0000
   3 C_a :3d2-  -0.0446  -0.5648   0.9151   0.9907   0.5156  -2.5896   0.0000
   4 C_a :3d2-   0.1332  -2.6179   2.9643   4.1030   0.8914  -5.2654   0.0000
   5 C_a :3d2-   1.3807  -1.1805  -0.3555   0.7777   0.3100  -0.0613   0.0000
   6 C_a :4f2-  -0.0008   0.0039  -0.0006  -0.0081  -0.0034   0.0124   0.0000
   7 C_a :4f2-  -0.0027  -0.0360   0.0466   0.1164  -0.0106  -0.2221   0.0000
   8 C_a :4f2-  -0.0903  -0.3438   0.8126   0.5745  -0.0667  -2.1362   0.0000
   9 C_a :4f2-   0.2260  -1.0044   0.0366   2.6264  -0.2258  -1.5371   0.0000
  10 C_a :5g4-   0.0000   0.0000   0.0000   0.0000   0.0000   0.0000   0.0589
  11 C_a :5g2-   0.0015  -0.0012  -0.0057   0.0100  -0.0087   0.0048   0.0000
  12 C_a :5g4-   0.0000   0.0000   0.0000   0.0000   0.0000   0.0000  -0.2693
  13 C_a :5g2-  -0.0121  -0.0089   0.0604   0.0067   0.0213  -0.1599   0.0000
  14 C_a :5g4-   0.0000   0.0000   0.0000   0.0000   0.0000   0.0000   1.1761
  15 C_a :5g2-  -0.0105  -0.1097   0.1540   0.3385  -0.3269  -0.5429   0.0000
  17 O_a :3d2-  -0.0022  -0.0048   0.0235   0.0096   0.0207  -0.0222   0.0000
  18 O_a :3d2-   0.0267   0.0667  -0.1577  -0.0726   0.0009   0.4604   0.0000
  19 O_a :3d2-   0.0991   1.0970  -1.6997  -2.3021   0.5596   5.6560   0.0000
  20 O_a :3d2-  -0.7012   3.7305  -1.2860  -3.7784  -1.2796   2.6689   0.0000
  22 O_a :4f2-   0.0029   0.0009  -0.0146  -0.0094   0.0296   0.0247   0.0000
  23 O_a :4f2-  -0.0400  -0.1117   0.2855   0.2926  -0.1680  -0.8893   0.0000
  24 O_a :4f2-   0.0303  -0.7326   0.8022   0.7517   1.7040  -2.2552   0.0000
  27 O_a :5g4-   0.0000   0.0000   0.0000   0.0000   0.0000   0.0000   0.0221
  28 O_a :5g2-   0.0030  -0.0058  -0.0018  -0.0211   0.0529   0.0320   0.0000
  29 O_a :5g4-   0.0000   0.0000   0.0000   0.0000   0.0000   0.0000  -0.0851
  30 O_a :5g2-   0.0010   0.0981  -0.1266  -0.0987  -0.2121   0.3548   0.0000

    Orbital         8        9       10
   1 C_a :3d2-  -0.0217  -0.0034  -0.0402
   2 C_a :3d2-   0.0745  -0.0905  -0.0337
   3 C_a :3d2-  -0.4188  -2.6570  -5.4436
   4 C_a :3d2-  -1.3873  -0.7378  -4.7011
   5 C_a :3d2-  -0.4503  -0.0002  -0.0750
   6 C_a :4f2-   0.0247   0.0269   0.0148
   7 C_a :4f2-  -0.1145  -0.3919  -0.3963
   8 C_a :4f2-   1.3195  -0.5912  -3.4384
   9 C_a :4f2-  -1.2472   0.2252  -1.5006
  11 C_a :5g2-  -0.0299   0.0433  -0.0136
  13 C_a :5g2-   0.1398  -0.4230  -0.1695
  15 C_a :5g2-  -0.1644   1.4090  -1.4207
  17 O_a :3d2-   0.0497   0.0122  -0.1035
  18 O_a :3d2-  -0.1830   0.3387   0.6244
  19 O_a :3d2-   0.4748   1.7373   7.8697
  20 O_a :3d2-   1.6224   0.3639   2.1286
  22 O_a :4f2-  -0.0344  -0.0374   0.0521
  23 O_a :4f2-   0.2169  -0.7622  -1.3835
  24 O_a :4f2-  -0.7248  -1.7540  -2.2544
  28 O_a :5g2-   0.0063   0.0345   0.0588
  30 O_a :5g2-   0.0345   0.5371   0.5017

  Total CPU  time used in SIRIUS :  11.78 seconds
  Total wall time used in SIRIUS :  11.79 seconds

 
     Date and time (Linux)  : Wed Jan 11 14:17:00 2023
     Host name              : cn023                                   


                     .---------------------------------------.
                     | End of Wave Function Section (SIRIUS) |
                     `---------------------------------------'



                 .------------------------------------------------.
                 | Starting in Dynamic Property Section (RESPONS) |
                 `------------------------------------------------'


 ----------------------------------------------------------------------------------------
  RESPONSE  -  an MCSCF, MC-srDFT, DFT, SOPPA and SOPPA-srDFT response property program
 ----------------------------------------------------------------------------------------


 -------- OUTPUT FROM RESPONSE INPUT PROCESSING --------




 Linear Response calculation
 ---------------------------

 Print level                                    : IPRLR  =   2
 Maximum number of iterations                   : MAXITL =  60
 Threshold for relative convergence             : THCLR  = 1.000D-03
 Maximum iterations in optimal orbital algorithm: MAXITO =   5

  9 B-frequencies  0.000000D+00  2.015931D-02  4.031862D-02  6.047794D-02  8.063725D-02
  1.007966D-01  1.209559D-01  1.411152D-01  1.612745D-01

    1 second order properties calculated with symmetry no.    1 and labels:

          ZDIPLEN 

    1 second order properties calculated with symmetry no.    2 and labels:

          XDIPLEN 

    1 second order properties calculated with symmetry no.    3 and labels:

          YDIPLEN 


   SCF energy         :     -112.789115470560859
 -- inactive part     :     -135.303186765119960
 -- nuclear repulsion :       22.514071294559098


                     ***************************************
                     *** RHF response calculation (TDHF) ***
                     ***************************************

 ----------------------------------------------------------------
 ----- Linear response calculation
 ----- Symmetry of excitation/property operator(s)    1  ( A1 )
 ----------------------------------------------------------------

 Number of excitations of this symmetry            0
 Number of response properties of this symmetry    1
 Number of C6/C8 properties of this symmetry       0


 Perturbation symmetry.     KSYMOP:           1
 Perturbation spin symmetry.TRPLET:           F
 Orbital variables.         KZWOPT:         473
 Configuration variables.   KZCONF:           0
 Total number of variables. KZVAR :         473


 RSPLR -- linear response calculation for symmetry 1  ( A1 )
 RSPLR -- operator label : ZDIPLEN 
 RSPLR -- operator spin  :   0
 RSPLR -- frequencies    :     0.000000  0.020159  0.040319  0.060478  0.080637
                               0.100797  0.120956  0.141115  0.161274



 ---  SOLVING SETS OF LINEAR EQUATIONS FOR LINEAR RESPONSE PROPERTIES ---

 Operator symmetry = 1  ( A1 ); triplet =   F


 ** RSPCTL MICROITERATION NUMBER    1

       No.  Residual tot.,    conf., and orb.    Bnorm      Frequency 
      ----------------------------------------------------------------
         1    3.04438D+00  0.00D+00  3.04D+00  2.50D+00    0.00000D+00
         2    3.04725D+00  0.00D+00  3.05D+00  2.51D+00    2.01593D-02
         3    3.05592D+00  0.00D+00  3.06D+00  2.52D+00    4.03186D-02
         4    3.07049D+00  0.00D+00  3.07D+00  2.55D+00    6.04779D-02
         5    3.09117D+00  0.00D+00  3.09D+00  2.58D+00    8.06372D-02
         6    3.11826D+00  0.00D+00  3.12D+00  2.63D+00    1.00797D-01
         7    3.15215D+00  0.00D+00  3.15D+00  2.69D+00    1.20956D-01
         8    3.19338D+00  0.00D+00  3.19D+00  2.76D+00    1.41115D-01
         9    3.24259D+00  0.00D+00  3.24D+00  2.85D+00    1.61274D-01

 ** RSPCTL MICROITERATION NUMBER    2

       No.  Residual tot.,    conf., and orb.    Bnorm      Frequency 
      ----------------------------------------------------------------
         1    6.17177D-01  0.00D+00  6.17D-01  3.14D+00    0.00000D+00
         2    6.18205D-01  0.00D+00  6.18D-01  3.14D+00    2.01593D-02
         3    6.21309D-01  0.00D+00  6.21D-01  3.17D+00    4.03186D-02
         4    6.26552D-01  0.00D+00  6.27D-01  3.20D+00    6.04779D-02
         5    6.34042D-01  0.00D+00  6.34D-01  3.25D+00    8.06372D-02
         6    6.43938D-01  0.00D+00  6.44D-01  3.32D+00    1.00797D-01
         7    6.56458D-01  0.00D+00  6.56D-01  3.40D+00    1.20956D-01
         8    6.71897D-01  0.00D+00  6.72D-01  3.51D+00    1.41115D-01
         9    6.90639D-01  0.00D+00  6.91D-01  3.63D+00    1.61274D-01

 ** RSPCTL MICROITERATION NUMBER    3

       No.  Residual tot.,    conf., and orb.    Bnorm      Frequency 
      ----------------------------------------------------------------
         1    8.57428D-02  0.00D+00  8.57D-02  3.17D+00    0.00000D+00
         2    8.59386D-02  0.00D+00  8.59D-02  3.17D+00    2.01593D-02
         3    8.65309D-02  0.00D+00  8.65D-02  3.20D+00    4.03186D-02
         4    8.75352D-02  0.00D+00  8.75D-02  3.23D+00    6.04779D-02
         5    8.89786D-02  0.00D+00  8.90D-02  3.29D+00    8.06372D-02
         6    9.09014D-02  0.00D+00  9.09D-02  3.35D+00    1.00797D-01
         7    9.33603D-02  0.00D+00  9.34D-02  3.44D+00    1.20956D-01
         8    9.64335D-02  0.00D+00  9.64D-02  3.55D+00    1.41115D-01
         9    1.00227D-01  0.00D+00  1.00D-01  3.68D+00    1.61274D-01

 ** RSPCTL MICROITERATION NUMBER    4

       No.  Residual tot.,    conf., and orb.    Bnorm      Frequency 
      ----------------------------------------------------------------
         1    7.12376D-03  0.00D+00  7.12D-03  3.17D+00    0.00000D+00
         2    7.15357D-03  0.00D+00  7.15D-03  3.17D+00    2.01593D-02
         3    7.24406D-03  0.00D+00  7.24D-03  3.20D+00    4.03186D-02
         4    7.39844D-03  0.00D+00  7.40D-03  3.23D+00    6.04779D-02
         5    7.62238D-03  0.00D+00  7.62D-03  3.29D+00    8.06372D-02
         6    7.92444D-03  0.00D+00  7.92D-03  3.35D+00    1.00797D-01
         7    8.31679D-03  0.00D+00  8.32D-03  3.44D+00    1.20956D-01
         8    8.81639D-03  0.00D+00  8.82D-03  3.55D+00    1.41115D-01
         9    9.44671D-03  0.00D+00  9.45D-03  3.68D+00    1.61274D-01

 ** RSPCTL MICROITERATION NUMBER    5

       No.  Residual tot.,    conf., and orb.    Bnorm      Frequency 
      ----------------------------------------------------------------
         1    5.45477D-04  0.00D+00  5.45D-04  3.17D+00    0.00000D+00
         2    5.48034D-04  0.00D+00  5.48D-04  3.17D+00    2.01593D-02
         3    5.55800D-04  0.00D+00  5.56D-04  3.20D+00    4.03186D-02
         4    5.69074D-04  0.00D+00  5.69D-04  3.23D+00    6.04779D-02
         5    5.88381D-04  0.00D+00  5.88D-04  3.29D+00    8.06372D-02
         6    6.14519D-04  0.00D+00  6.15D-04  3.35D+00    1.00797D-01
         7    6.48644D-04  0.00D+00  6.49D-04  3.44D+00    1.20956D-01
         8    6.92386D-04  0.00D+00  6.92D-04  3.55D+00    1.41115D-01
         9    7.48050D-04  0.00D+00  7.48D-04  3.68D+00    1.61274D-01

 *** THE REQUESTED    9 SOLUTION VECTORS CONVERGED

 Convergence of RSP solution vectors, threshold = 1.00D-03
 ---------------------------------------------------------------
 (dimension of paired reduced space:   90)
 RSP solution vector no.    1; norm of residual   1.72D-04
 RSP solution vector no.    2; norm of residual   1.73D-04
 RSP solution vector no.    3; norm of residual   1.74D-04
 RSP solution vector no.    4; norm of residual   1.76D-04
 RSP solution vector no.    5; norm of residual   1.79D-04
 RSP solution vector no.    6; norm of residual   1.83D-04
 RSP solution vector no.    7; norm of residual   1.88D-04
 RSP solution vector no.    8; norm of residual   1.95D-04
 RSP solution vector no.    9; norm of residual   2.03D-04

 *** RSPCTL MICROITERATIONS CONVERGED


           Final output of second order properties from linear response
           ------------------------------------------------------------


@ Spin symmetry of operators: singlet

 Note that minus the linear response function: - << A; B >>(omega) is printed.
 The results are of quadratic accuracy using Sellers formula.

@ FREQUENCY INDEPENDENT SECOND ORDER PROPERTIES

@ -<< ZDIPLEN  ; ZDIPLEN  >> =  1.446915639903E+01

@ FREQUENCY DEPENDENT SECOND ORDER PROPERTIES WITH FREQUENCY :

@    a.u.:  2.0159312D-02
@    cm-1:  4.4244576D+03
@    eV  :  5.4856280D-01
@  kJ/mol:  5.2928267D+01
@    nm  :  2.2601640D+03

@ -<< ZDIPLEN  ; ZDIPLEN  >> =  1.448599654694E+01

@ FREQUENCY DEPENDENT SECOND ORDER PROPERTIES WITH FREQUENCY :

@    a.u.:  4.0318625D-02
@    cm-1:  8.8489153D+03
@    eV  :  1.0971256D+00
@  kJ/mol:  1.0585653D+02
@    nm  :  1.1300820D+03

@ -<< ZDIPLEN  ; ZDIPLEN  >> =  1.453681020313E+01

@ FREQUENCY DEPENDENT SECOND ORDER PROPERTIES WITH FREQUENCY :

@    a.u.:  6.0477937D-02
@    cm-1:  1.3273373D+04
@    eV  :  1.6456884D+00
@  kJ/mol:  1.5878480D+02
@    nm  :  7.5338801D+02

@ -<< ZDIPLEN  ; ZDIPLEN  >> =  1.462249116960E+01

@ FREQUENCY DEPENDENT SECOND ORDER PROPERTIES WITH FREQUENCY :

@    a.u.:  8.0637250D-02
@    cm-1:  1.7697831D+04
@    eV  :  2.1942512D+00
@  kJ/mol:  2.1171307D+02
@    nm  :  5.6504101D+02

@ -<< ZDIPLEN  ; ZDIPLEN  >> =  1.474457770511E+01

@ FREQUENCY DEPENDENT SECOND ORDER PROPERTIES WITH FREQUENCY :

@    a.u.:  1.0079656D-01
@    cm-1:  2.2122288D+04
@    eV  :  2.7428140D+00
@  kJ/mol:  2.6464133D+02
@    nm  :  4.5203281D+02

@ -<< ZDIPLEN  ; ZDIPLEN  >> =  1.490533044157E+01

@ FREQUENCY DEPENDENT SECOND ORDER PROPERTIES WITH FREQUENCY :

@    a.u.:  1.2095587D-01
@    cm-1:  2.6546746D+04
@    eV  :  3.2913768D+00
@  kJ/mol:  3.1756960D+02
@    nm  :  3.7669400D+02

@ -<< ZDIPLEN  ; ZDIPLEN  >> =  1.510785241244E+01

@ FREQUENCY DEPENDENT SECOND ORDER PROPERTIES WITH FREQUENCY :

@    a.u.:  1.4111519D-01
@    cm-1:  3.0971203D+04
@    eV  :  3.8399396D+00
@  kJ/mol:  3.7049787D+02
@    nm  :  3.2288058D+02

@ -<< ZDIPLEN  ; ZDIPLEN  >> =  1.535626442647E+01

@ FREQUENCY DEPENDENT SECOND ORDER PROPERTIES WITH FREQUENCY :

@    a.u.:  1.6127450D-01
@    cm-1:  3.5395661D+04
@    eV  :  4.3885024D+00
@  kJ/mol:  4.2342613D+02
@    nm  :  2.8252050D+02

@ -<< ZDIPLEN  ; ZDIPLEN  >> =  1.565595677530E+01


 Time used in linear response calculation is     10.43 CPU seconds for symmetry 1
 ----------------------------------------------------------------
 ----- Linear response calculation
 ----- Symmetry of excitation/property operator(s)    2  ( B1 )
 ----------------------------------------------------------------

 Number of excitations of this symmetry            0
 Number of response properties of this symmetry    1
 Number of C6/C8 properties of this symmetry       0


 Perturbation symmetry.     KSYMOP:           2
 Perturbation spin symmetry.TRPLET:           F
 Orbital variables.         KZWOPT:         350
 Configuration variables.   KZCONF:           0
 Total number of variables. KZVAR :         350


 RSPLR -- linear response calculation for symmetry 2  ( B1 )
 RSPLR -- operator label : XDIPLEN 
 RSPLR -- operator spin  :   0
 RSPLR -- frequencies    :     0.000000  0.020159  0.040319  0.060478  0.080637
                               0.100797  0.120956  0.141115  0.161274



 ---  SOLVING SETS OF LINEAR EQUATIONS FOR LINEAR RESPONSE PROPERTIES ---

 Operator symmetry = 2  ( B1 ); triplet =   F


 ** RSPCTL MICROITERATION NUMBER    1

       No.  Residual tot.,    conf., and orb.    Bnorm      Frequency 
      ----------------------------------------------------------------
         1    9.14011D-01  0.00D+00  9.14D-01  2.79D+00    0.00000D+00
         2    9.16027D-01  0.00D+00  9.16D-01  2.80D+00    2.01593D-02
         3    9.22157D-01  0.00D+00  9.22D-01  2.82D+00    4.03186D-02
         4    9.32662D-01  0.00D+00  9.33D-01  2.87D+00    6.04779D-02
         5    9.48002D-01  0.00D+00  9.48D-01  2.94D+00    8.06372D-02
         6    9.68889D-01  0.00D+00  9.69D-01  3.03D+00    1.00797D-01
         7    9.96359D-01  0.00D+00  9.96D-01  3.15D+00    1.20956D-01
         8    1.03191D+00  0.00D+00  1.03D+00  3.30D+00    1.41115D-01
         9    1.07767D+00  0.00D+00  1.08D+00  3.48D+00    1.61274D-01

 ** RSPCTL MICROITERATION NUMBER    2

       No.  Residual tot.,    conf., and orb.    Bnorm      Frequency 
      ----------------------------------------------------------------
         1    1.45605D-01  0.00D+00  1.46D-01  2.86D+00    0.00000D+00
         2    1.46280D-01  0.00D+00  1.46D-01  2.87D+00    2.01593D-02
         3    1.48346D-01  0.00D+00  1.48D-01  2.90D+00    4.03186D-02
         4    1.51931D-01  0.00D+00  1.52D-01  2.96D+00    6.04779D-02
         5    1.57268D-01  0.00D+00  1.57D-01  3.04D+00    8.06372D-02
         6    1.64729D-01  0.00D+00  1.65D-01  3.15D+00    1.00797D-01
         7    1.74889D-01  0.00D+00  1.75D-01  3.29D+00    1.20956D-01
         8    1.88627D-01  0.00D+00  1.89D-01  3.48D+00    1.41115D-01
         9    2.07321D-01  0.00D+00  2.07D-01  3.73D+00    1.61274D-01

 ** RSPCTL MICROITERATION NUMBER    3

       No.  Residual tot.,    conf., and orb.    Bnorm      Frequency 
      ----------------------------------------------------------------
         1    2.05051D-02  0.00D+00  2.05D-02  2.86D+00    0.00000D+00
         2    2.06163D-02  0.00D+00  2.06D-02  2.87D+00    2.01593D-02
         3    2.09575D-02  0.00D+00  2.10D-02  2.91D+00    4.03186D-02
         4    2.15532D-02  0.00D+00  2.16D-02  2.96D+00    6.04779D-02
         5    2.24477D-02  0.00D+00  2.24D-02  3.04D+00    8.06372D-02
         6    2.37125D-02  0.00D+00  2.37D-02  3.15D+00    1.00797D-01
         7    2.54577D-02  0.00D+00  2.55D-02  3.30D+00    1.20956D-01
         8    2.78533D-02  0.00D+00  2.79D-02  3.49D+00    1.41115D-01
         9    3.11657D-02  0.00D+00  3.12D-02  3.74D+00    1.61274D-01

 ** RSPCTL MICROITERATION NUMBER    4

       No.  Residual tot.,    conf., and orb.    Bnorm      Frequency 
      ----------------------------------------------------------------
         1    1.36809D-03  0.00D+00  1.37D-03  2.86D+00    0.00000D+00
         2    1.37832D-03  0.00D+00  1.38D-03  2.87D+00    2.01593D-02
         3    1.40988D-03  0.00D+00  1.41D-03  2.91D+00    4.03186D-02
         4    1.46544D-03  0.00D+00  1.47D-03  2.96D+00    6.04779D-02
         5    1.54982D-03  0.00D+00  1.55D-03  3.04D+00    8.06372D-02
         6    1.67060D-03  0.00D+00  1.67D-03  3.15D+00    1.00797D-01
         7    1.83924D-03  0.00D+00  1.84D-03  3.30D+00    1.20956D-01
         8    2.07296D-03  0.00D+00  2.07D-03  3.49D+00    1.41115D-01
         9    2.39816D-03  0.00D+00  2.40D-03  3.74D+00    1.61274D-01

 *** THE REQUESTED    9 SOLUTION VECTORS CONVERGED

 Convergence of RSP solution vectors, threshold = 1.00D-03
 ---------------------------------------------------------------
 (dimension of paired reduced space:   72)
 RSP solution vector no.    1; norm of residual   4.78D-04
 RSP solution vector no.    2; norm of residual   4.80D-04
 RSP solution vector no.    3; norm of residual   4.85D-04
 RSP solution vector no.    4; norm of residual   4.95D-04
 RSP solution vector no.    5; norm of residual   5.10D-04
 RSP solution vector no.    6; norm of residual   5.30D-04
 RSP solution vector no.    7; norm of residual   5.58D-04
 RSP solution vector no.    8; norm of residual   5.94D-04
 RSP solution vector no.    9; norm of residual   6.41D-04

 *** RSPCTL MICROITERATIONS CONVERGED


           Final output of second order properties from linear response
           ------------------------------------------------------------


@ Spin symmetry of operators: singlet

 Note that minus the linear response function: - << A; B >>(omega) is printed.
 The results are of quadratic accuracy using Sellers formula.

@ FREQUENCY INDEPENDENT SECOND ORDER PROPERTIES

@ -<< XDIPLEN  ; XDIPLEN  >> =  1.127299941489E+01

@ FREQUENCY DEPENDENT SECOND ORDER PROPERTIES WITH FREQUENCY :

@    a.u.:  2.0159312D-02
@    cm-1:  4.4244576D+03
@    eV  :  5.4856280D-01
@  kJ/mol:  5.2928267D+01
@    nm  :  2.2601640D+03

@ -<< XDIPLEN  ; XDIPLEN  >> =  1.129012537701E+01

@ FREQUENCY DEPENDENT SECOND ORDER PROPERTIES WITH FREQUENCY :

@    a.u.:  4.0318625D-02
@    cm-1:  8.8489153D+03
@    eV  :  1.0971256D+00
@  kJ/mol:  1.0585653D+02
@    nm  :  1.1300820D+03

@ -<< XDIPLEN  ; XDIPLEN  >> =  1.134206750933E+01

@ FREQUENCY DEPENDENT SECOND ORDER PROPERTIES WITH FREQUENCY :

@    a.u.:  6.0477937D-02
@    cm-1:  1.3273373D+04
@    eV  :  1.6456884D+00
@  kJ/mol:  1.5878480D+02
@    nm  :  7.5338801D+02

@ -<< XDIPLEN  ; XDIPLEN  >> =  1.143057870887E+01

@ FREQUENCY DEPENDENT SECOND ORDER PROPERTIES WITH FREQUENCY :

@    a.u.:  8.0637250D-02
@    cm-1:  1.7697831D+04
@    eV  :  2.1942512D+00
@  kJ/mol:  2.1171307D+02
@    nm  :  5.6504101D+02

@ -<< XDIPLEN  ; XDIPLEN  >> =  1.155879441717E+01

@ FREQUENCY DEPENDENT SECOND ORDER PROPERTIES WITH FREQUENCY :

@    a.u.:  1.0079656D-01
@    cm-1:  2.2122288D+04
@    eV  :  2.7428140D+00
@  kJ/mol:  2.6464133D+02
@    nm  :  4.5203281D+02

@ -<< XDIPLEN  ; XDIPLEN  >> =  1.173160564424E+01

@ FREQUENCY DEPENDENT SECOND ORDER PROPERTIES WITH FREQUENCY :

@    a.u.:  1.2095587D-01
@    cm-1:  2.6546746D+04
@    eV  :  3.2913768D+00
@  kJ/mol:  3.1756960D+02
@    nm  :  3.7669400D+02

@ -<< XDIPLEN  ; XDIPLEN  >> =  1.195630701413E+01

@ FREQUENCY DEPENDENT SECOND ORDER PROPERTIES WITH FREQUENCY :

@    a.u.:  1.4111519D-01
@    cm-1:  3.0971203D+04
@    eV  :  3.8399396D+00
@  kJ/mol:  3.7049787D+02
@    nm  :  3.2288058D+02

@ -<< XDIPLEN  ; XDIPLEN  >> =  1.224371002898E+01

@ FREQUENCY DEPENDENT SECOND ORDER PROPERTIES WITH FREQUENCY :

@    a.u.:  1.6127450D-01
@    cm-1:  3.5395661D+04
@    eV  :  4.3885024D+00
@  kJ/mol:  4.2342613D+02
@    nm  :  2.8252050D+02

@ -<< XDIPLEN  ; XDIPLEN  >> =  1.261010741919E+01


 Time used in linear response calculation is      8.45 CPU seconds for symmetry 2
 ----------------------------------------------------------------
 ----- Linear response calculation
 ----- Symmetry of excitation/property operator(s)    3  ( B2 )
 ----------------------------------------------------------------

 Number of excitations of this symmetry            0
 Number of response properties of this symmetry    1
 Number of C6/C8 properties of this symmetry       0


 Perturbation symmetry.     KSYMOP:           3
 Perturbation spin symmetry.TRPLET:           F
 Orbital variables.         KZWOPT:         350
 Configuration variables.   KZCONF:           0
 Total number of variables. KZVAR :         350


 RSPLR -- linear response calculation for symmetry 3  ( B2 )
 RSPLR -- operator label : YDIPLEN 
 RSPLR -- operator spin  :   0
 RSPLR -- frequencies    :     0.000000  0.020159  0.040319  0.060478  0.080637
                               0.100797  0.120956  0.141115  0.161274



 ---  SOLVING SETS OF LINEAR EQUATIONS FOR LINEAR RESPONSE PROPERTIES ---

 Operator symmetry = 3  ( B2 ); triplet =   F


 ** RSPCTL MICROITERATION NUMBER    1

       No.  Residual tot.,    conf., and orb.    Bnorm      Frequency 
      ----------------------------------------------------------------
         1    9.27688D-01  0.00D+00  9.28D-01  2.79D+00    0.00000D+00
         2    9.29726D-01  0.00D+00  9.30D-01  2.80D+00    2.01593D-02
         3    9.35924D-01  0.00D+00  9.36D-01  2.82D+00    4.03186D-02
         4    9.46544D-01  0.00D+00  9.47D-01  2.87D+00    6.04779D-02
         5    9.62051D-01  0.00D+00  9.62D-01  2.94D+00    8.06372D-02
         6    9.83160D-01  0.00D+00  9.83D-01  3.03D+00    1.00797D-01
         7    1.01092D+00  0.00D+00  1.01D+00  3.15D+00    1.20956D-01
         8    1.04683D+00  0.00D+00  1.05D+00  3.29D+00    1.41115D-01
         9    1.09305D+00  0.00D+00  1.09D+00  3.48D+00    1.61274D-01

 ** RSPCTL MICROITERATION NUMBER    2

       No.  Residual tot.,    conf., and orb.    Bnorm      Frequency 
      ----------------------------------------------------------------
         1    1.42109D-01  0.00D+00  1.42D-01  2.86D+00    0.00000D+00
         2    1.42736D-01  0.00D+00  1.43D-01  2.87D+00    2.01593D-02
         3    1.44656D-01  0.00D+00  1.45D-01  2.90D+00    4.03186D-02
         4    1.47993D-01  0.00D+00  1.48D-01  2.96D+00    6.04779D-02
         5    1.52971D-01  0.00D+00  1.53D-01  3.04D+00    8.06372D-02
         6    1.59950D-01  0.00D+00  1.60D-01  3.15D+00    1.00797D-01
         7    1.69485D-01  0.00D+00  1.69D-01  3.29D+00    1.20956D-01
         8    1.82430D-01  0.00D+00  1.82D-01  3.48D+00    1.41115D-01
         9    2.00124D-01  0.00D+00  2.00D-01  3.73D+00    1.61274D-01

 ** RSPCTL MICROITERATION NUMBER    3

       No.  Residual tot.,    conf., and orb.    Bnorm      Frequency 
      ----------------------------------------------------------------
         1    2.00981D-02  0.00D+00  2.01D-02  2.86D+00    0.00000D+00
         2    2.02119D-02  0.00D+00  2.02D-02  2.87D+00    2.01593D-02
         3    2.05610D-02  0.00D+00  2.06D-02  2.91D+00    4.03186D-02
         4    2.11695D-02  0.00D+00  2.12D-02  2.96D+00    6.04779D-02
         5    2.20817D-02  0.00D+00  2.21D-02  3.04D+00    8.06372D-02
         6    2.33685D-02  0.00D+00  2.34D-02  3.15D+00    1.00797D-01
         7    2.51397D-02  0.00D+00  2.51D-02  3.30D+00    1.20956D-01
         8    2.75643D-02  0.00D+00  2.76D-02  3.49D+00    1.41115D-01
         9    3.09082D-02  0.00D+00  3.09D-02  3.74D+00    1.61274D-01

 ** RSPCTL MICROITERATION NUMBER    4

       No.  Residual tot.,    conf., and orb.    Bnorm      Frequency 
      ----------------------------------------------------------------
         1    1.19600D-03  0.00D+00  1.20D-03  2.86D+00    0.00000D+00
         2    1.20529D-03  0.00D+00  1.21D-03  2.87D+00    2.01593D-02
         3    1.23402D-03  0.00D+00  1.23D-03  2.91D+00    4.03186D-02
         4    1.28485D-03  0.00D+00  1.28D-03  2.96D+00    6.04779D-02
         5    1.36256D-03  0.00D+00  1.36D-03  3.04D+00    8.06372D-02
         6    1.47472D-03  0.00D+00  1.47D-03  3.15D+00    1.00797D-01
         7    1.63279D-03  0.00D+00  1.63D-03  3.30D+00    1.20956D-01
         8    1.85403D-03  0.00D+00  1.85D-03  3.49D+00    1.41115D-01
         9    2.16500D-03  0.00D+00  2.16D-03  3.74D+00    1.61274D-01

 *** THE REQUESTED    9 SOLUTION VECTORS CONVERGED

 Convergence of RSP solution vectors, threshold = 1.00D-03
 ---------------------------------------------------------------
 (dimension of paired reduced space:   72)
 RSP solution vector no.    1; norm of residual   4.18D-04
 RSP solution vector no.    2; norm of residual   4.19D-04
 RSP solution vector no.    3; norm of residual   4.25D-04
 RSP solution vector no.    4; norm of residual   4.34D-04
 RSP solution vector no.    5; norm of residual   4.48D-04
 RSP solution vector no.    6; norm of residual   4.68D-04
 RSP solution vector no.    7; norm of residual   4.95D-04
 RSP solution vector no.    8; norm of residual   5.31D-04
 RSP solution vector no.    9; norm of residual   5.78D-04

 *** RSPCTL MICROITERATIONS CONVERGED


           Final output of second order properties from linear response
           ------------------------------------------------------------


@ Spin symmetry of operators: singlet

 Note that minus the linear response function: - << A; B >>(omega) is printed.
 The results are of quadratic accuracy using Sellers formula.

@ FREQUENCY INDEPENDENT SECOND ORDER PROPERTIES

@ -<< YDIPLEN  ; YDIPLEN  >> =  1.127299947752E+01

@ FREQUENCY DEPENDENT SECOND ORDER PROPERTIES WITH FREQUENCY :

@    a.u.:  2.0159312D-02
@    cm-1:  4.4244576D+03
@    eV  :  5.4856280D-01
@  kJ/mol:  5.2928267D+01
@    nm  :  2.2601640D+03

@ -<< YDIPLEN  ; YDIPLEN  >> =  1.129012544057E+01

@ FREQUENCY DEPENDENT SECOND ORDER PROPERTIES WITH FREQUENCY :

@    a.u.:  4.0318625D-02
@    cm-1:  8.8489153D+03
@    eV  :  1.0971256D+00
@  kJ/mol:  1.0585653D+02
@    nm  :  1.1300820D+03

@ -<< YDIPLEN  ; YDIPLEN  >> =  1.134206757576E+01

@ FREQUENCY DEPENDENT SECOND ORDER PROPERTIES WITH FREQUENCY :

@    a.u.:  6.0477937D-02
@    cm-1:  1.3273373D+04
@    eV  :  1.6456884D+00
@  kJ/mol:  1.5878480D+02
@    nm  :  7.5338801D+02

@ -<< YDIPLEN  ; YDIPLEN  >> =  1.143057878042E+01

@ FREQUENCY DEPENDENT SECOND ORDER PROPERTIES WITH FREQUENCY :

@    a.u.:  8.0637250D-02
@    cm-1:  1.7697831D+04
@    eV  :  2.1942512D+00
@  kJ/mol:  2.1171307D+02
@    nm  :  5.6504101D+02

@ -<< YDIPLEN  ; YDIPLEN  >> =  1.155879449666E+01

@ FREQUENCY DEPENDENT SECOND ORDER PROPERTIES WITH FREQUENCY :

@    a.u.:  1.0079656D-01
@    cm-1:  2.2122288D+04
@    eV  :  2.7428140D+00
@  kJ/mol:  2.6464133D+02
@    nm  :  4.5203281D+02

@ -<< YDIPLEN  ; YDIPLEN  >> =  1.173160573540E+01

@ FREQUENCY DEPENDENT SECOND ORDER PROPERTIES WITH FREQUENCY :

@    a.u.:  1.2095587D-01
@    cm-1:  2.6546746D+04
@    eV  :  3.2913768D+00
@  kJ/mol:  3.1756960D+02
@    nm  :  3.7669400D+02

@ -<< YDIPLEN  ; YDIPLEN  >> =  1.195630712224E+01

@ FREQUENCY DEPENDENT SECOND ORDER PROPERTIES WITH FREQUENCY :

@    a.u.:  1.4111519D-01
@    cm-1:  3.0971203D+04
@    eV  :  3.8399396D+00
@  kJ/mol:  3.7049787D+02
@    nm  :  3.2288058D+02

@ -<< YDIPLEN  ; YDIPLEN  >> =  1.224371016169E+01

@ FREQUENCY DEPENDENT SECOND ORDER PROPERTIES WITH FREQUENCY :

@    a.u.:  1.6127450D-01
@    cm-1:  3.5395661D+04
@    eV  :  4.3885024D+00
@  kJ/mol:  4.2342613D+02
@    nm  :  2.8252050D+02

@ -<< YDIPLEN  ; YDIPLEN  >> =  1.261010758813E+01


 Time used in linear response calculation is      8.45 CPU seconds for symmetry 3

  Total CPU  time used in RESPONSE:  27.33 seconds
  Total wall time used in RESPONSE:  27.36 seconds


                   .-------------------------------------------.
                   | End of Dynamic Property Section (RESPONS) |
                   `-------------------------------------------'

  Total CPU  time used in DALTON:  39.86 seconds
  Total wall time used in DALTON:  39.90 seconds

 
     Date and time (Linux)  : Wed Jan 11 14:17:27 2023
     Host name              : cn023                                   
