

     ************************************************************************
     *************** Dalton - An Electronic Structure Program ***************
     ************************************************************************

    This is output from DALTON release Dalton2020.0 (2020)
         ( Web site: http://daltonprogram.org )

   ----------------------------------------------------------------------------

    NOTE:
     
    Dalton is an experimental code for the evaluation of molecular
    properties using (MC)SCF, DFT, CI, and CC wave functions.
    The authors accept no responsibility for the performance of
    the code or for the correctness of the results.
     
    The code (in whole or part) is provided under a licence and
    is not to be reproduced for further distribution without
    the written permission of the authors or their representatives.
     
    See the home page "http://daltonprogram.org" for further information.
     
    If results obtained with this code are published,
    the appropriate citations would be both of:
     
       K. Aidas, C. Angeli, K. L. Bak, V. Bakken, R. Bast,
       L. Boman, O. Christiansen, R. Cimiraglia, S. Coriani,
       P. Dahle, E. K. Dalskov, U. Ekstroem,
       T. Enevoldsen, J. J. Eriksen, P. Ettenhuber, B. Fernandez,
       L. Ferrighi, H. Fliegl, L. Frediani, K. Hald, A. Halkier,
       C. Haettig, H. Heiberg, T. Helgaker, A. C. Hennum,
       H. Hettema, E. Hjertenaes, S. Hoest, I.-M. Hoeyvik,
       M. F. Iozzi, B. Jansik, H. J. Aa. Jensen, D. Jonsson,
       P. Joergensen, J. Kauczor, S. Kirpekar,
       T. Kjaergaard, W. Klopper, S. Knecht, R. Kobayashi, H. Koch,
       J. Kongsted, A. Krapp, K. Kristensen, A. Ligabue,
       O. B. Lutnaes, J. I. Melo, K. V. Mikkelsen, R. H. Myhre,
       C. Neiss, C. B. Nielsen, P. Norman, J. Olsen,
       J. M. H. Olsen, A. Osted, M. J. Packer, F. Pawlowski,
       T. B. Pedersen, P. F. Provasi, S. Reine, Z. Rinkevicius,
       T. A. Ruden, K. Ruud, V. Rybkin, P. Salek, C. C. M. Samson,
       A. Sanchez de Meras, T. Saue, S. P. A. Sauer,
       B. Schimmelpfennig, K. Sneskov, A. H. Steindal,
       K. O. Sylvester-Hvid, P. R. Taylor, A. M. Teale,
       E. I. Tellgren, D. P. Tew, A. J. Thorvaldsen, L. Thoegersen,
       O. Vahtras, M. A. Watson, D. J. D. Wilson, M. Ziolkowski
       and H. Agren,
       "The Dalton quantum chemistry program system",
       WIREs Comput. Mol. Sci. 2014, 4:269–284 (doi: 10.1002/wcms.1172)
     
    and
     
       Dalton, a molecular electronic structure program,
       Release Dalton2020.0 (2020), see http://daltonprogram.org
   ----------------------------------------------------------------------------

    Authors in alphabetical order (Major contribution(s) in parenthesis):

  Kestutis Aidas,           Vilnius University,           Lithuania   (QM/MM)
  Celestino Angeli,         University of Ferrara,        Italy       (NEVPT2)
  Keld L. Bak,              UNI-C,                        Denmark     (AOSOPPA, non-adiabatic coupling, magnetic properties)
  Vebjoern Bakken,          University of Oslo,           Norway      (DALTON; geometry optimizer, symmetry detection)
  Radovan Bast,             UiT The Arctic U. of Norway,  Norway      (DALTON installation and execution frameworks)
  Pablo Baudin,             University of Valencia,       Spain       (Cholesky excitation energies)
  Linus Boman,              NTNU,                         Norway      (Cholesky decomposition and subsystems)
  Bruno N. Cabral Tenorio,  Technical Univ. of Denmark,   Denmark     (Lanczos-based CC methods)
  Ove Christiansen,         Aarhus University,            Denmark     (CC module)
  Renzo Cimiraglia,         University of Ferrara,        Italy       (NEVPT2)
  Sonia Coriani,            Technical Univ. of Denmark,   Denmark     (CC and RESPONS modules)
  Janusz Cukras,            University of Warsaw,         Poland      (MChD in RESPONS)
  Paal Dahle,               University of Oslo,           Norway      (Parallelization)
  Erik K. Dalskov,          UNI-C,                        Denmark     (SOPPA)
  Thomas Enevoldsen,        Univ. of Southern Denmark,    Denmark     (SOPPA)
  Janus J. Eriksen,         Aarhus University,            Denmark     (Polarizable embedding, TDA)
  Rasmus Faber,             Technical Univ. of Denmark,   Denmark     (Vib.avg. NMR w. SOPPA, parallel AO-SOPPA, CVS-CC and EOMCC)
  Tobias Fahleson,          KTH Stockholm,                Sweden      (Damped cubic response)
  Berta Fernandez,          U. of Santiago de Compostela, Spain       (Doublet spin, ESR in RESPONS)
  Lara Ferrighi,            Aarhus University,            Denmark     (PCM Cubic response)
  Heike Fliegl,             University of Oslo,           Norway      (CCSD(R12))
  Luca Frediani,            UiT The Arctic U. of Norway,  Norway      (PCM)
  Emmanuel Fromager,        Univ. Strasbourg,             France      (MC-srDFT)
  Bin Gao,                  UiT The Arctic U. of Norway,  Norway      (Gen1Int library)
  Andre S. P. Gomes,        CNRS/Universite de Lille,     France      (Frozen density embedding)
  Christof Haettig,         Ruhr-University Bochum,       Germany     (CC module)
  Kasper Hald,              Aarhus University,            Denmark     (CC module)
  Asger Halkier,            Aarhus University,            Denmark     (CC module)
  Frederik Beyer Hansen,    University of Copenhagen,     Denmark     (Parallel AO-SOPPA)
  Erik D. Hedegaard,        Univ. of Southern Denmark,    Denmark     (Polarizable embedding, QM/MM, and MC-srDFT)
  Hanne Heiberg,            University of Oslo,           Norway      (Geometry analysis, selected one-electron integrals)
  Trygve Helgaker,          University of Oslo,           Norway      (DALTON; ABACUS, ERI, DFT modules, London, and much more)
  Alf Christian Hennum,     University of Oslo,           Norway      (Parity violation)
  Hinne Hettema,            University of Auckland,       New Zealand (Quadratic response in RESPONS; SIRIUS supersymmetry)
  Eirik Hjertenaes,         NTNU,                         Norway      (Cholesky decomposition)
  Pi A. B. Haase,           University of Copenhagen,     Denmark     (Triplet AO-SOPPA)
  Maria Francesca Iozzi,    University of Oslo,           Norway      (RPA)
  Christoph Jacob           TU Braunschweig               Germany     (Frozen density embedding)
  Brano Jansik              Technical Univ. of Ostrava    Czech Rep.  (DFT cubic response)
  Hans Joergen Aa. Jensen,  Univ. of Southern Denmark,    Denmark     (DALTON; SIRIUS, RESPONS, ABACUS, MC-srDFT, and much more)
  Dan Jonsson,              UiT The Arctic U. of Norway,  Norway      (Cubic response in RESPONS module)
  Poul Joergensen,          Aarhus University,            Denmark     (RESPONS, ABACUS, and CC modules)
  Maciej Kaminski,          University of Warsaw,         Poland      (CPPh in RESPONS)
  Joanna Kauczor,           Linkoeping University,        Sweden      (Complex polarization propagator (CPP) module)
  Sheela Kirpekar,          Univ. of Southern Denmark,    Denmark     (Mass-velocity & Darwin integrals)
  Erik Kjellgren,           Univ. of Southern Denmark,    Denmark     (MC-srDFT)
  Wim Klopper,              KIT Karlsruhe,                Germany     (R12 code in CC, SIRIUS, and ABACUS modules)
  Stefan Knecht,            ETH Zurich,                   Switzerland (Parallel CI and MCSCF, MC-srDFT)
  Rika Kobayashi,           Australian National Univ.,    Australia   (DIIS in CC, London in MCSCF)
  Henrik Koch,              NTNU,                         Norway      (CC module, Cholesky decomposition)
  Jacob Kongsted,           Univ. of Southern Denmark,    Denmark     (Polarizable embedding, polarizable density embedding, QM/MM)
  Andrea Ligabue,           University of Modena,         Italy       (CTOCD, AOSOPPA)
  Nanna H. List             Univ. of Southern Denmark,    Denmark     (Polarizable embedding)
  Ola B. Lutnaes,           University of Oslo,           Norway      (DFT Hessian)
  Juan I. Melo,             University of Buenos Aires,   Argentina   (LRESC, Relativistic Effects on NMR Shieldings)
  Kurt V. Mikkelsen,        University of Copenhagen,     Denmark     (MC-SCRF and QM/MM)
  Rolf H. Myhre,            NTNU,                         Norway      (Subsystems and CC3)
  Christian Neiss,          Univ. Erlangen-Nuernberg,     Germany     (CCSD(R12))
  Christian B. Nielsen,     University of Copenhagen,     Denmark     (QM/MM)
  Patrick Norman,           KTH Stockholm,                Sweden      (Cubic response and complex frequency response in RESPONS)
  Jeppe Olsen,              Aarhus University,            Denmark     (SIRIUS CI/density modules)
  Jogvan Magnus H. Olsen,   Aarhus University,            Denmark     (Polarizable embedding and polarizable density embedding)
  Anders Osted,             Copenhagen University,        Denmark     (QM/MM)
  Martin J. Packer,         University of Sheffield,      UK          (SOPPA)
  Filip Pawlowski,          Kazimierz Wielki University,  Poland      (CC3)
  Morten N. Pedersen,       Univ. of Southern Denmark,    Denmark     (Polarizable embedding)
  Thomas B. Pedersen,       University of Oslo,           Norway      (Cholesky decomposition)
  Patricio F. Provasi,      University of Northeastern,   Argentina   (Analysis of coupling constants in localized orbitals)
  Peter Reinholdt,          Univ. of Southern Denmark,    Denmark     (Polarizable embedding and polarizable density embedding)
  Zilvinas Rinkevicius,     KTH Stockholm,                Sweden      (open-shell DFT, ESR)
  Elias Rudberg,            KTH Stockholm,                Sweden      (DFT grid and basis info)
  Torgeir A. Ruden,         University of Oslo,           Norway      (Numerical derivatives in ABACUS)
  Kenneth Ruud,             UiT The Arctic U. of Norway,  Norway      (DALTON; ABACUS magnetic properties and much more)
  Pawel Salek,              KTH Stockholm,                Sweden      (DALTON; DFT code)
  Claire C. M. Samson       University of Karlsruhe       Germany     (Boys localization, r12 integrals in ERI)
  Alfredo Sanchez de Meras, University of Valencia,       Spain       (CC module, Cholesky decomposition)
  Trond Saue,               Paul Sabatier University,     France      (direct Fock matrix construction)
  Stephan P. A. Sauer,      University of Copenhagen,     Denmark     (SOPPA(CCSD), SOPPA prop., AOSOPPA, vibrational g-factors)
  Bernd Schimmelpfennig,    Forschungszentrum Karlsruhe,  Germany     (AMFI module)
  Anna K. Schnack-Petersen, University of Copenhagen,     Denmark     (RPA(D) and HRPA(D) properties in AOSOPPA)
  Kristian Sneskov,         Aarhus University,            Denmark     (Polarizable embedding, QM/MM)
  Arnfinn H. Steindal,      UiT The Arctic U. of Norway,  Norway      (parallel QM/MM, polarizable embedding)
  Casper Steinmann,         Aalborg University,           Denmark     (QFIT, polarizable embedding)
  K. O. Sylvester-Hvid,     University of Copenhagen,     Denmark     (MC-SCRF)
  Peter R. Taylor,          VLSCI/Univ. of Melbourne,     Australia   (Symmetry handling ABACUS, integral transformation)
  Andrew M. Teale,          University of Nottingham,     England     (DFT-AC, DFT-D)
  David P. Tew,             University of Bristol,        England     (CCSD(R12))
  Julien Toulouse,          Sorbonne Univ.,               France      (MC-srDFT)
  Olav Vahtras,             KTH Stockholm,                Sweden      (Triplet response, spin-orbit, ESR, TDDFT, open-shell DFT)
  Lucas Visscher,           Vrije Universiteit Amsterdam, Netherlands (Frozen density embedding)
  David J. Wilson,          La Trobe University,          Australia   (DFT Hessian and DFT magnetizabilities)
  Hans Agren,               KTH Stockholm,                Sweden      (SIRIUS module, RESPONS, MC-SCRF solvation)
 --------------------------------------------------------------------------------

     Date and time (Linux)  : Wed Jan 11 15:39:39 2023
     Host name              : cn016                                   

 * Work memory size             :    64000000 =  488.28 megabytes.

 * Directories for basis set searches:
   1) /gpfs/projects/rjh/adrian/fd_compare/dalton/hf/CO/dipole
   2) /gpfs/projects/rjh/adrian/dalton/build/basis


Compilation information
-----------------------

 Who compiled             | ahurtado
 Host                     | sn-mem
 System                   | Linux-3.10.0-1160.24.1.el7.x86_64
 CMake generator          | Unix Makefiles
 Processor                | x86_64
 64-bit integers          | OFF
 MPI                      | ON
 Fortran compiler         | /gpfs/software/intel/oneAPI/2021_4/mpi/2021.4.0/bi
                          | n/mpif90
 Fortran compiler version | GNU Fortran (GCC) 11.2.0
 C compiler               | /gpfs/software/intel/oneAPI/2021_4/mpi/2021.4.0/bi
                          | n/mpicc
 C compiler version       | gcc (GCC) 11.2.0
 C++ compiler             | /gpfs/software/intel/oneAPI/2021_4/mpi/2021.4.0/bi
                          | n/mpicxx
 C++ compiler version     | unknown
 BLAS                     | /gpfs/software/intel/oneAPI/2021_4/mkl/2021.4.0/li
                          | b/intel64/libmkl_gf_lp64.so;/gpfs/software/intel/o
                          | neAPI/2021_4/mkl/2021.4.0/lib/intel64/libmkl_seque
                          | ntial.so;/gpfs/software/intel/oneAPI/2021_4/mkl/20
                          | 21.4.0/lib/intel64/libmkl_core.so;/usr/lib64/libpt
                          | hread.so;/usr/lib64/libm.so
 LAPACK                   | /gpfs/software/intel/oneAPI/2021_4/mkl/2021.4.0/li
                          | b/intel64/libmkl_lapack95_lp64.a;/gpfs/software/in
                          | tel/oneAPI/2021_4/mkl/2021.4.0/lib/intel64/libmkl_
                          | gf_lp64.so
 Static linking           | OFF
 Last Git revision        | 66052b3af5ea7225e31178bf9a8b031913c72190
 Git branch               | (HEAD detached at Dalton2020.0)
 Configuration time       | 2023-01-11 13:33:37.731835

 * MPI parallel run using 20 processes.


   Content of the .dal input file
 ----------------------------------

**DALTON INPUT
.RUN RESPONSE
.DIRECT
**WAVE FUNCTIONS
.HF
**RESPONSE
*LINEAR
.DIPLEN
.FREQUENCIES
9
0.0 0.0201593125 0.040318625 0.060477937499999995 0.08063725 0.10079656249999999 0.12095587499999999
**END OF DALTON INPUT


   Content of the .mol file
 ----------------------------

BASIS
d-aug-cc-pCVQZ
blah
blah
Atomtype=2 Atomic
Charge=6 Atoms=1
C_a 0.000000000000 0.000000000000 0.000000000000
Charge=8 Atoms=1
O_a 0.000000000000 0.000000000000 2.132000000000


       *******************************************************************
       *********** Output from DALTON general input processing ***********
       *******************************************************************

 --------------------------------------------------------------------------------
   Overall default print level:    0
   Print level for DALTON.STAT:    1

    Parallel calculation using MPI
    AO-direct calculation (in sections where implemented)
    HERMIT 1- and 2-electron integral sections will be executed
    "Old" integral transformation used (limited to max 255 basis functions)
    Wave function sections will be executed (SIRIUS module)
    Dynamic molecular response properties section will be executed (RESPONSE module)
 --------------------------------------------------------------------------------


   ****************************************************************************
   *************** Output of molecule and basis set information ***************
   ****************************************************************************


    The two title cards from your ".mol" input:
    ------------------------------------------------------------------------
 1: blah                                                                    
 2: blah                                                                    
    ------------------------------------------------------------------------

  Atomic type no.    1
  --------------------
  Nuclear charge:   6.00000
  Number of symmetry independent centers:    1
  Number of basis sets to read;    2
  Basis set file used for this atomic type with Z =   6 :
     "/gpfs/projects/rjh/adrian/dalton/build/basis/aug-cc-pCVQZ"

  Atomic type no.    2
  --------------------
  Nuclear charge:   8.00000
  Number of symmetry independent centers:    1
  Number of basis sets to read;    2
  Basis set file used for this atomic type with Z =   8 :
     "/gpfs/projects/rjh/adrian/dalton/build/basis/aug-cc-pCVQZ"


                      SYMADD: Requested addition of symmetry
                      --------------------------------------

 Symmetry test threshold:  5.00E-06

@   The molecule is centered at center of mass and rotated
@   so principal axes of inertia are along coordinate axes.

 Symmetry class found: C(oo,v)        

 Symmetry Independent Centres             
 ----------------------------
O_a    8 :      0.00000000     0.00000000     0.91388025  Isotope  1
C_a    6 :      0.00000000     0.00000000    -1.21811975  Isotope  1

 The following symmetry elements were found:   X  Y     


                         SYMGRP: Point group information
                         -------------------------------

@    Full point group is: C(oo,v)        
@    Represented as:      C2v

@  * The irrep name for each symmetry:    1: A1     2: B1     3: B2     4: A2 

   * The point group was generated by:

      Reflection in the yz-plane
      Reflection in the xz-plane

   * Group multiplication table

        |  E   C2z  Oxz  Oyz
   -----+--------------------
     E  |  E   C2z  Oxz  Oyz
    C2z | C2z   E   Oyz  Oxz
    Oxz | Oxz  Oyz   E   C2z
    Oyz | Oyz  Oxz  C2z   E 

   * Character table

        |  E   C2z  Oxz  Oyz
   -----+--------------------
    A1  |   1    1    1    1
    B1  |   1   -1    1   -1
    B2  |   1   -1   -1    1
    A2  |   1    1   -1   -1

   * Direct product table

        | A1   B1   B2   A2 
   -----+--------------------
    A1  | A1   B1   B2   A2 
    B1  | B1   A1   A2   B2 
    B2  | B2   A2   A1   B1 
    A2  | A2   B2   B1   A1 


                                 Isotopic Masses
                                 ---------------

                           C_a        12.000000
                           O_a        15.994915

                       Total mass:    27.994915 amu
                       Natural abundance:  98.663 %

 Center-of-mass coordinates (a.u.):    0.000000    0.000000    0.000000
 Center-of-mass coordinates (Angs):    0.000000    0.000000    0.000000


  Atoms and basis sets
  --------------------

  Number of atom types :    2
  Total number of atoms:    2

  Basis set used is "d-aug-cc-pCVQZ" from the basis set library.

  label    atoms   charge   prim   cont     basis
  ----------------------------------------------------------------------
  C_          1    6.0000   147   134      [17s11p7d5f3g|10s9p7d5f3g]                         
  O_          1    8.0000   147   134      [17s11p7d5f3g|10s9p7d5f3g]                         
  ----------------------------------------------------------------------
  total:      2   14.0000   294   268
  ----------------------------------------------------------------------
  Spherical harmonic basis used.

  Threshold for neglecting AO integrals:  1.00D-12


  Cartesian Coordinates (a.u.)
  ----------------------------

  Total number of coordinates:    6
  C_a     :     1  x   0.0000000000    2  y   0.0000000000    3  z  -1.2181197471
  O_a     :     4  x   0.0000000000    5  y   0.0000000000    6  z   0.9138802529


  Symmetry Coordinates
  --------------------

  Number of coordinates in each symmetry:     2    2    2    0

  Symmetry  A1  ( 1)

    1   C_a   z    3
    2   O_a   z    6

  Symmetry  B1  ( 2)

    3   C_a   x    1
    4   O_a   x    4

  Symmetry  B2  ( 3)

    5   C_a   y    2
    6   O_a   y    5


   Interatomic separations (in Angstrom):
   --------------------------------------

            C_a         O_a   
            ------      ------
 C_a   :    0.000000
 O_a   :    1.128206    0.000000


  Max    interatomic separation is    1.1282 Angstrom (    2.1320 Bohr)
  between atoms    2 and    1, "O_a   " and "C_a   ".

  Min YX interatomic separation is    1.1282 Angstrom (    2.1320 Bohr)


  Bond distances (Angstrom):
  --------------------------

                  atom 1     atom 2       distance
                  ------     ------       --------
  bond distance:  O_a        C_a          1.128206




 Principal moments of inertia (u*A**2) and principal axes
 --------------------------------------------------------

   IA       0.000000          0.000000    0.000000    1.000000
   IB       8.726914          0.000000    1.000000    0.000000
   IC       8.726914          1.000000    0.000000    0.000000


 Rotational constants
 --------------------

@    The molecule is linear.

               B =        57910.39 MHz     (    1.931683 cm-1)


@  Nuclear repulsion energy :   22.514071294559 Hartree


  Symmetry Orbitals
  -----------------

  Number of orbitals in each symmetry:         104   64   64   36


  Symmetry  A1 ( 1)

    1     C_a      1s         1
    2     C_a      1s         2
    3     C_a      1s         3
    4     C_a      1s         4
    5     C_a      1s         5
    6     C_a      1s         6
    7     C_a      1s         7
    8     C_a      1s         8
    9     C_a      1s         9
   10     C_a      1s        10
   11     C_a      2pz       13
   12     C_a      2pz       16
   13     C_a      2pz       19
   14     C_a      2pz       22
   15     C_a      2pz       25
   16     C_a      2pz       28
   17     C_a      2pz       31
   18     C_a      2pz       34
   19     C_a      2pz       37
   20     C_a      3d0       40
   21     C_a      3d2+      42
   22     C_a      3d0       45
   23     C_a      3d2+      47
   24     C_a      3d0       50
   25     C_a      3d2+      52
   26     C_a      3d0       55
   27     C_a      3d2+      57
   28     C_a      3d0       60
   29     C_a      3d2+      62
   30     C_a      3d0       65
   31     C_a      3d2+      67
   32     C_a      3d0       70
   33     C_a      3d2+      72
   34     C_a      4f0       76
   35     C_a      4f2+      78
   36     C_a      4f0       83
   37     C_a      4f2+      85
   38     C_a      4f0       90
   39     C_a      4f2+      92
   40     C_a      4f0       97
   41     C_a      4f2+      99
   42     C_a      4f0      104
   43     C_a      4f2+     106
   44     C_a      5g0      112
   45     C_a      5g2+     114
   46     C_a      5g4+     116
   47     C_a      5g0      121
   48     C_a      5g2+     123
   49     C_a      5g4+     125
   50     C_a      5g0      130
   51     C_a      5g2+     132
   52     C_a      5g4+     134
   53     O_a      1s       135
   54     O_a      1s       136
   55     O_a      1s       137
   56     O_a      1s       138
   57     O_a      1s       139
   58     O_a      1s       140
   59     O_a      1s       141
   60     O_a      1s       142
   61     O_a      1s       143
   62     O_a      1s       144
   63     O_a      2pz      147
   64     O_a      2pz      150
   65     O_a      2pz      153
   66     O_a      2pz      156
   67     O_a      2pz      159
   68     O_a      2pz      162
   69     O_a      2pz      165
   70     O_a      2pz      168
   71     O_a      2pz      171
   72     O_a      3d0      174
   73     O_a      3d2+     176
   74     O_a      3d0      179
   75     O_a      3d2+     181
   76     O_a      3d0      184
   77     O_a      3d2+     186
   78     O_a      3d0      189
   79     O_a      3d2+     191
   80     O_a      3d0      194
   81     O_a      3d2+     196
   82     O_a      3d0      199
   83     O_a      3d2+     201
   84     O_a      3d0      204
   85     O_a      3d2+     206
   86     O_a      4f0      210
   87     O_a      4f2+     212
   88     O_a      4f0      217
   89     O_a      4f2+     219
   90     O_a      4f0      224
   91     O_a      4f2+     226
   92     O_a      4f0      231
   93     O_a      4f2+     233
   94     O_a      4f0      238
   95     O_a      4f2+     240
   96     O_a      5g0      246
   97     O_a      5g2+     248
   98     O_a      5g4+     250
   99     O_a      5g0      255
  100     O_a      5g2+     257
  101     O_a      5g4+     259
  102     O_a      5g0      264
  103     O_a      5g2+     266
  104     O_a      5g4+     268


  Symmetry  B1 ( 2)

  105     C_a      2px       11
  106     C_a      2px       14
  107     C_a      2px       17
  108     C_a      2px       20
  109     C_a      2px       23
  110     C_a      2px       26
  111     C_a      2px       29
  112     C_a      2px       32
  113     C_a      2px       35
  114     C_a      3d1+      41
  115     C_a      3d1+      46
  116     C_a      3d1+      51
  117     C_a      3d1+      56
  118     C_a      3d1+      61
  119     C_a      3d1+      66
  120     C_a      3d1+      71
  121     C_a      4f1+      77
  122     C_a      4f3+      79
  123     C_a      4f1+      84
  124     C_a      4f3+      86
  125     C_a      4f1+      91
  126     C_a      4f3+      93
  127     C_a      4f1+      98
  128     C_a      4f3+     100
  129     C_a      4f1+     105
  130     C_a      4f3+     107
  131     C_a      5g1+     113
  132     C_a      5g3+     115
  133     C_a      5g1+     122
  134     C_a      5g3+     124
  135     C_a      5g1+     131
  136     C_a      5g3+     133
  137     O_a      2px      145
  138     O_a      2px      148
  139     O_a      2px      151
  140     O_a      2px      154
  141     O_a      2px      157
  142     O_a      2px      160
  143     O_a      2px      163
  144     O_a      2px      166
  145     O_a      2px      169
  146     O_a      3d1+     175
  147     O_a      3d1+     180
  148     O_a      3d1+     185
  149     O_a      3d1+     190
  150     O_a      3d1+     195
  151     O_a      3d1+     200
  152     O_a      3d1+     205
  153     O_a      4f1+     211
  154     O_a      4f3+     213
  155     O_a      4f1+     218
  156     O_a      4f3+     220
  157     O_a      4f1+     225
  158     O_a      4f3+     227
  159     O_a      4f1+     232
  160     O_a      4f3+     234
  161     O_a      4f1+     239
  162     O_a      4f3+     241
  163     O_a      5g1+     247
  164     O_a      5g3+     249
  165     O_a      5g1+     256
  166     O_a      5g3+     258
  167     O_a      5g1+     265
  168     O_a      5g3+     267


  Symmetry  B2 ( 3)

  169     C_a      2py       12
  170     C_a      2py       15
  171     C_a      2py       18
  172     C_a      2py       21
  173     C_a      2py       24
  174     C_a      2py       27
  175     C_a      2py       30
  176     C_a      2py       33
  177     C_a      2py       36
  178     C_a      3d1-      39
  179     C_a      3d1-      44
  180     C_a      3d1-      49
  181     C_a      3d1-      54
  182     C_a      3d1-      59
  183     C_a      3d1-      64
  184     C_a      3d1-      69
  185     C_a      4f3-      73
  186     C_a      4f1-      75
  187     C_a      4f3-      80
  188     C_a      4f1-      82
  189     C_a      4f3-      87
  190     C_a      4f1-      89
  191     C_a      4f3-      94
  192     C_a      4f1-      96
  193     C_a      4f3-     101
  194     C_a      4f1-     103
  195     C_a      5g3-     109
  196     C_a      5g1-     111
  197     C_a      5g3-     118
  198     C_a      5g1-     120
  199     C_a      5g3-     127
  200     C_a      5g1-     129
  201     O_a      2py      146
  202     O_a      2py      149
  203     O_a      2py      152
  204     O_a      2py      155
  205     O_a      2py      158
  206     O_a      2py      161
  207     O_a      2py      164
  208     O_a      2py      167
  209     O_a      2py      170
  210     O_a      3d1-     173
  211     O_a      3d1-     178
  212     O_a      3d1-     183
  213     O_a      3d1-     188
  214     O_a      3d1-     193
  215     O_a      3d1-     198
  216     O_a      3d1-     203
  217     O_a      4f3-     207
  218     O_a      4f1-     209
  219     O_a      4f3-     214
  220     O_a      4f1-     216
  221     O_a      4f3-     221
  222     O_a      4f1-     223
  223     O_a      4f3-     228
  224     O_a      4f1-     230
  225     O_a      4f3-     235
  226     O_a      4f1-     237
  227     O_a      5g3-     243
  228     O_a      5g1-     245
  229     O_a      5g3-     252
  230     O_a      5g1-     254
  231     O_a      5g3-     261
  232     O_a      5g1-     263


  Symmetry  A2 ( 4)

  233     C_a      3d2-      38
  234     C_a      3d2-      43
  235     C_a      3d2-      48
  236     C_a      3d2-      53
  237     C_a      3d2-      58
  238     C_a      3d2-      63
  239     C_a      3d2-      68
  240     C_a      4f2-      74
  241     C_a      4f2-      81
  242     C_a      4f2-      88
  243     C_a      4f2-      95
  244     C_a      4f2-     102
  245     C_a      5g4-     108
  246     C_a      5g2-     110
  247     C_a      5g4-     117
  248     C_a      5g2-     119
  249     C_a      5g4-     126
  250     C_a      5g2-     128
  251     O_a      3d2-     172
  252     O_a      3d2-     177
  253     O_a      3d2-     182
  254     O_a      3d2-     187
  255     O_a      3d2-     192
  256     O_a      3d2-     197
  257     O_a      3d2-     202
  258     O_a      4f2-     208
  259     O_a      4f2-     215
  260     O_a      4f2-     222
  261     O_a      4f2-     229
  262     O_a      4f2-     236
  263     O_a      5g4-     242
  264     O_a      5g2-     244
  265     O_a      5g4-     251
  266     O_a      5g2-     253
  267     O_a      5g4-     260
  268     O_a      5g2-     262

  Symmetries of electric field:  B1 (2)  B2 (3)  A1 (1)

  Symmetries of magnetic field:  B2 (3)  B1 (2)  A2 (4)


                     .---------------------------------------.
                     | Starting in Integral Section (HERMIT) |
                     `---------------------------------------'



 ***************************************************************************************
 ****************** Output from **INTEGRALS input processing (HERMIT) ******************
 ***************************************************************************************


 - Using defaults, no **INTEGRALS input found

 Default print level:        1

 Calculation of one-electron Hamiltonian integrals.

 Center of mass  (bohr):      0.000000000000      0.000000000000      0.000000000000
 Operator center (bohr):      0.000000000000      0.000000000000      0.000000000000
 Gauge origin    (bohr):      0.000000000000      0.000000000000      0.000000000000
 Dipole origin   (bohr):      0.000000000000      0.000000000000      0.000000000000


     ************************************************************************
     ************************** Output from HERINT **************************
     ************************************************************************



                      Nuclear contribution to dipole moments
                      --------------------------------------

                 au               Debye          C m (/(10**-30)

      z      0.00232354         0.00590585         0.01969980


  Time used in GABGEN     is       1.02 seconds
  Total CPU  time used in HERMIT:   1.40 seconds
  Total wall time used in HERMIT:   1.40 seconds


                        .----------------------------------.
                        | End of Integral Section (HERMIT) |
                        `----------------------------------'



                   .--------------------------------------------.
                   | Starting in Wave Function Section (SIRIUS) |
                   `--------------------------------------------'


 *** Output from Huckel module :

     Using EWMO model:          T
     Using EHT  model:          F
     Number of Huckel orbitals each symmetry:    6    2    2    0

 EWMO - Energy Weighted Maximum Overlap - is a Huckel type method,
        which normally is better than Extended Huckel Theory.
 Reference: Linderberg and Ohrn, Propagators in Quantum Chemistry (Wiley, 1973)

 Huckel EWMO eigenvalues for symmetry :  1
          -20.685999     -11.349525      -1.578830      -0.796795      -0.456115
           -0.137637

 Huckel EWMO eigenvalues for symmetry :  2
           -0.717188      -0.305912

 Huckel EWMO eigenvalues for symmetry :  3
           -0.717188      -0.305912

 **********************************************************************
 *SIRIUS* a direct, restricted step, second order MCSCF program       *
 **********************************************************************

 
     Date and time (Linux)  : Wed Jan 11 15:39:40 2023
     Host name              : cn016                                   

 Title lines from ".mol" input file:
     blah                                                                    
     blah                                                                    

 Print level on unit LUPRI =   2 is   0
 Print level on unit LUW4  =   2 is   5

@    Restricted, closed shell Hartree-Fock calculation.

@    Time-dependent Hartree-Fock calculation (random phase approximation).
 Fock matrices are calculated directly and in parallel without use of integrals on disk.

 Initial molecular orbitals are obtained according to
 ".MOSTART EWMO  " input option

     Wave function specification
     ============================
@    Wave function type        --- HF ---
@    Number of closed shell electrons          14
@    Number of electrons in active shells       0
@    Total charge of the molecule               0

@    Spin multiplicity and 2 M_S                1         0
@    Total number of symmetries                 4 (point group: C2v)
@    Reference state symmetry                   1 (irrep name : A1 )

     Orbital specifications
     ======================
@    Abelian symmetry species          All |    1    2    3    4
@                                          |  A1   B1   B2   A2 
                                       --- |  ---  ---  ---  ---
@    Total number of orbitals          268 |  104   64   64   36
@    Number of basis functions         268 |  104   64   64   36

      ** Automatic occupation of RHF orbitals **

      -- Initial occupation of symmetries is determined from extended Huckel guess.           
      -- Initial occupation of symmetries is :
@    Occupied SCF orbitals               7 |    5    1    1    0

     Maximum number of Fock   iterations      0
     Maximum number of DIIS   iterations     60
     Maximum number of QC-SCF iterations     60
     Threshold for SCF convergence     1.00D-05

    INFORMATION: Switched to "new" integral transformation (from 1988 ;-) )
    because more than 255 basis functions.


 ***********************************************
 ***** DIIS acceleration of SCF iterations *****
 ***********************************************

 C1-DIIS algorithm; max error vectors =    8

 Automatic occupation of symmetries with  14 electrons.

 Iter     Total energy    Error norm  Delta(E)    SCF occupation
 -----------------------------------------------------------------------------
   1  Screening settings (-IFTHRS, JTDIIS, DIFDEN, times)   -8    1    T  1.93D+00  1.93D+00
@  1  -112.499900083       3.81D+00  -1.12D+02     5   1   1   0
      Virial theorem: -V/T =      2.006219
@    MULPOP   C_a     1.02; O_a    -1.02; 
   1  Level shift: doubly occupied orbital energies shifted by -2.00D-01
 -----------------------------------------------------------------------------
   2  Screening settings (-IFTHRS, JTDIIS, DIFDEN, times)   -8    2    T  2.15D+00  2.15D+00
@  2  -112.775010477       5.45D-01  -2.75D-01     5   1   1   0
      Virial theorem: -V/T =      1.998252
@    MULPOP   C_a     0.37; O_a    -0.37; 
   2  Level shift: doubly occupied orbital energies shifted by -5.00D-02
 -----------------------------------------------------------------------------
   3  Screening settings (-IFTHRS, JTDIIS, DIFDEN, times)   -8    3    T  2.16D+00  2.16D+00
@  3  -112.787994613       1.23D-01  -1.30D-02     5   1   1   0
      Virial theorem: -V/T =      2.001082
@    MULPOP   C_a     0.40; O_a    -0.40; 
   3  Level shift: doubly occupied orbital energies shifted by -1.25D-02
 -----------------------------------------------------------------------------
   4  Screening settings (-IFTHRS, JTDIIS, DIFDEN, times)  -12    4    F  2.18D+00  2.19D+00
@  4  -112.789138302       5.76D-02  -1.14D-03     5   1   1   0
      Virial theorem: -V/T =      2.001690
@    MULPOP   C_a     0.37; O_a    -0.37; 
 -----------------------------------------------------------------------------
   5  Screening settings (-IFTHRS, JTDIIS, DIFDEN, times)  -12    5    T  2.17D+00  2.18D+00
@  5  -112.789312735       2.51D-02  -1.74D-04     5   1   1   0
      Virial theorem: -V/T =      2.001115
@    MULPOP   C_a     0.39; O_a    -0.39; 
 -----------------------------------------------------------------------------
   6  Screening settings (-IFTHRS, JTDIIS, DIFDEN, times)  -12    6    T  2.15D+00  2.16D+00
@  6  -112.789344125       3.08D-03  -3.14D-05     5   1   1   0
      Virial theorem: -V/T =      2.001347
@    MULPOP   C_a     0.38; O_a    -0.38; 
 -----------------------------------------------------------------------------
   7  Screening settings (-IFTHRS, JTDIIS, DIFDEN, times)  -12    7    T  2.14D+00  2.14D+00
@  7  -112.789345046       6.03D-04  -9.21D-07     5   1   1   0
      Virial theorem: -V/T =      2.001344
@    MULPOP   C_a     0.39; O_a    -0.39; 
 -----------------------------------------------------------------------------
   8  Screening settings (-IFTHRS, JTDIIS, DIFDEN, times)  -12    8    T  2.17D+00  2.18D+00
@  8  -112.789345078       1.31D-04  -3.22D-08     5   1   1   0
      Virial theorem: -V/T =      2.001347
@    MULPOP   C_a     0.39; O_a    -0.39; 
 -----------------------------------------------------------------------------
   9  Screening settings (-IFTHRS, JTDIIS, DIFDEN, times)  -12    9    T  2.17D+00  2.18D+00
@  9  -112.789345079       1.49D-05  -1.75D-09     5   1   1   0
      Virial theorem: -V/T =      2.001347
@    MULPOP   C_a     0.39; O_a    -0.39; 
 -----------------------------------------------------------------------------
  10  Screening settings (-IFTHRS, JTDIIS, DIFDEN, times)  -12   10    T  2.14D+00  2.14D+00
@ 10  -112.789345079       2.86D-06  -3.41D-11     5   1   1   0

@ *** DIIS converged in  10 iterations !
@     Converged SCF energy, gradient:   -112.789345079487    2.86D-06
    - total time used in SIRFCK :              0.00 seconds


 *** SCF orbital energy analysis ***

 Only the 20 lowest virtual orbital energies printed in each symmetry.

 Number of electrons :   14
 Orbital occupations :    5    1    1    0

 Sym       Hartree-Fock orbital energies

1 A1    -20.66518654   -11.36030613    -1.52171296    -0.80459892    -0.55492032
          0.01691257     0.02048408     0.05041700     0.07112270     0.07714875
          0.08899960     0.12113783     0.17441953     0.18876311     0.19461729
          0.26156921     0.27712730     0.28941611     0.34734401     0.36895463
          0.42202542     0.54982706     0.57292299     0.58330921     0.60888508

2 B1     -0.64033274     0.01926194     0.05058267     0.07695790     0.11700718
          0.14604212     0.19739257     0.27380089     0.28965902     0.31875944
          0.38735439     0.54461540     0.57109673     0.59275477     0.78492974
          0.88769823     0.89712988     0.99342843     1.05313897     1.10109321
          1.41238717

3 B2     -0.64033274     0.01926194     0.05058267     0.07695790     0.11700718
          0.14604212     0.19739257     0.27380089     0.28965902     0.31875944
          0.38735439     0.54461540     0.57109673     0.59275477     0.78492974
          0.88769823     0.89712988     0.99342843     1.05313897     1.10109321
          1.41238717

4 A2      0.07714875     0.18876311     0.27712730     0.36895463     0.58330921
          0.62714119     0.89369966     0.92552746     1.01021393     1.18980946
          1.55745857     1.59047359     1.82988774     2.10078210     2.46714579
          2.47743908     2.67990739     3.32244364     4.22869238     4.30704820

    E(LUMO) :     0.01691257 au (symmetry 1)
  - E(HOMO) :    -0.55492032 au (symmetry 1)
  ------------------------------------------
    gap     :     0.57183289 au

 --- Writing SIRIFC interface file

 CPU and wall time for SCF :      21.525      21.556


                       .-----------------------------------.
                       | --- Final results from SIRIUS --- |
                       `-----------------------------------'


@    Spin multiplicity:           1
@    Spatial symmetry:            1 ( irrep  A1  in C2v )
@    Total charge of molecule:    0

@    Final HF energy:            -112.789345079487                 
@    Nuclear repulsion:            22.514071294559
@    Electronic energy:          -135.303416374046

@    Final gradient norm:           0.000002855967

 
     Date and time (Linux)  : Wed Jan 11 15:40:02 2023
     Host name              : cn016                                   

File label for MO orbitals:  11Jan23   FOCKDIIS

 (Only coefficients > 0.0100 are printed.)

 Molecular orbitals for symmetry species 1  (A1 )
 ------------------------------------------------

    Orbital         1        2        3        4        5        6        7
   1 C_a :1s     0.0001   1.0001  -0.0111  -0.0009   0.0050  -0.0016  -0.0004
   2 C_a :1s     0.0004   0.0028   0.4474   0.5754   0.6251   0.0399  -0.0160
   3 C_a :1s     0.0000   0.0011  -0.0070  -0.0049  -0.0049   0.0373   0.0124
   4 C_a :1s     0.0012  -0.0086  -0.1282  -0.0678   0.0597  -0.2862  -0.0308
   5 C_a :1s    -0.0013  -0.0002  -0.1098  -0.0738   0.1429  -2.0771  -0.4087
   9 C_a :1s    -0.0010   0.0006   0.0015  -0.0034   0.0073  -6.2961  -1.8072
  10 C_a :1s    -0.0002   0.0000   0.0006  -0.0012  -0.0066  -5.7985  -2.0150
  11 C_a :2pz    0.0003   0.0094   0.3368   0.2038  -0.7137  -0.0329   0.0117
  12 C_a :2pz    0.0002  -0.0034  -0.0121  -0.0081   0.0156  -0.0104  -0.0084
  13 C_a :2pz    0.0010  -0.0056  -0.0776  -0.0324   0.0740  -0.3408  -0.0864
  14 C_a :2pz   -0.0003  -0.0001  -0.0705  -0.0233   0.0694  -1.1457  -0.3419
  18 C_a :2pz   -0.0003   0.0003   0.0018   0.0097  -0.0259  -1.6248  -1.1218
  19 C_a :2pz   -0.0001  -0.0000   0.0002   0.0008  -0.0023   0.2667  -2.2550
  24 C_a :3d0   -0.0000   0.0004   0.0110   0.0068  -0.0080   0.0019   0.0005
  26 C_a :3d0    0.0002   0.0004   0.0283   0.0190  -0.0223  -0.0362  -0.0107
  28 C_a :3d0    0.0015   0.0005   0.0248   0.0218  -0.0237  -0.1799  -0.0081
  30 C_a :3d0    0.0003   0.0001   0.0027   0.0076  -0.0151  -0.2453   0.0101
  32 C_a :3d0   -0.0001  -0.0000   0.0005   0.0023  -0.0055   0.0450  -0.4642
  38 C_a :4f0    0.0003   0.0003   0.0096   0.0094  -0.0045  -0.0236  -0.0038
  40 C_a :4f0    0.0009  -0.0001   0.0046  -0.0001  -0.0043  -0.0383   0.0399
  42 C_a :4f0    0.0001  -0.0002   0.0003   0.0016  -0.0034  -0.0179  -0.0024
  50 C_a :5g0    0.0003  -0.0002   0.0005  -0.0022  -0.0006  -0.0032   0.0123
  53 O_a :1s     1.0012  -0.0002  -0.0009   0.0004  -0.0028  -0.0040   0.0014
  54 O_a :1s     0.0066   0.0020   0.8522  -0.4543  -0.0761   0.0030   0.0253
  56 O_a :1s    -0.0075  -0.0009  -0.0751  -0.0673   0.0301   0.0933  -0.0120
  57 O_a :1s    -0.0015   0.0022  -0.0790  -0.1601   0.0536   1.0203   0.1786
  61 O_a :1s     0.0018  -0.0003   0.0061  -0.0199   0.0186   4.2366   1.3426
  62 O_a :1s     0.0006  -0.0000  -0.0006   0.0090   0.0042   8.4121   3.3764
  63 O_a :2pz   -0.0043  -0.0011  -0.2331  -0.7317   0.3728   0.0233   0.0056
  65 O_a :2pz    0.0028  -0.0007   0.0172   0.0414  -0.0124  -0.1131  -0.0301
  66 O_a :2pz   -0.0002  -0.0033   0.0202   0.0461  -0.0039  -0.5026  -0.1557
  70 O_a :2pz   -0.0002  -0.0007  -0.0044  -0.0244   0.0365  -1.3906  -0.1049
  71 O_a :2pz    0.0001  -0.0000  -0.0003  -0.0038   0.0069  -1.4963   1.2948
  78 O_a :3d0    0.0002   0.0004   0.0123   0.0135  -0.0086   0.0056   0.0021
  80 O_a :3d0   -0.0002   0.0006   0.0227   0.0183  -0.0139   0.0461   0.0145
  82 O_a :3d0   -0.0005   0.0020   0.0083   0.0200  -0.0026   0.0713  -0.0501
  84 O_a :3d0   -0.0001   0.0004   0.0005   0.0048  -0.0067   0.1504  -0.0721
  92 O_a :4f0    0.0003  -0.0000  -0.0045  -0.0050   0.0011  -0.0055   0.0125
  94 O_a :4f0    0.0003  -0.0006   0.0000  -0.0032  -0.0023  -0.0092   0.0442

    Orbital         8        9       10       11       12       13       14
   1 C_a :1s     0.0124   0.0076   0.0000  -0.0047   0.0379   0.0043   0.0000
   2 C_a :1s     0.1115   0.0965  -0.0000  -0.0909   0.0772   0.1453  -0.0000
   3 C_a :1s     0.0072  -0.0820  -0.0000   0.0367   0.0644   0.1492  -0.0000
   4 C_a :1s     0.5873   0.6663   0.0000  -0.1853   1.1736  -1.4305   0.0000
   5 C_a :1s     1.3027   4.6489   0.0000  -2.6083   1.5942  -8.1207  -0.0000
   6 C_a :1s     0.0042   0.0028   0.0000  -0.0020   0.0140   0.0007   0.0000
   9 C_a :1s     1.9276  14.8854   0.0000  -7.0505  -0.6969 -22.6089  -0.0000
  10 C_a :1s    -1.1997   9.2301   0.0000  -2.7195  -3.9500  -7.0567  -0.0000
  11 C_a :2pz   -0.0534  -0.1117  -0.0000   0.0543   0.0024  -0.0137   0.0000
  12 C_a :2pz    0.0507   0.0438  -0.0000   0.0209   0.1327  -0.0627  -0.0000
  13 C_a :2pz    0.0821   0.7478   0.0000  -0.4408   0.0014  -1.1614  -0.0000
  14 C_a :2pz   -1.1006   2.3588   0.0000  -2.0935  -3.3624  -3.1359  -0.0000
  18 C_a :2pz   -3.6124   3.9386   0.0000  -2.3365  -9.3930  -4.1756  -0.0000
  19 C_a :2pz   -2.5771   1.1208   0.0000   1.1942  -2.2004  -0.2726   0.0000
  26 C_a :3d0    0.0109   0.0847  -0.0000  -0.0310   0.0115  -0.1156  -0.0000
  27 C_a :3d2+  -0.0000   0.0000   0.0047  -0.0000   0.0000   0.0000  -0.0216
  28 C_a :3d0   -0.1648   0.3031  -0.0000  -0.3986  -0.6261  -0.5158  -0.0000
  29 C_a :3d2+   0.0000  -0.0000   0.0447  -0.0000  -0.0000  -0.0000   0.5651
  30 C_a :3d0   -0.4989   0.3393   0.0000  -0.7349  -1.8983  -1.0101   0.0000
  31 C_a :3d2+   0.0000  -0.0000  -0.1331  -0.0000  -0.0000   0.0000   2.6183
  32 C_a :3d0   -1.0408   0.5973   0.0000   1.2423  -3.0489  -0.7591  -0.0000
  33 C_a :3d2+   0.0000   0.0000  -1.3807  -0.0000  -0.0000   0.0000   1.1806
  38 C_a :4f0   -0.0193   0.0443  -0.0000  -0.0430  -0.0737  -0.0698  -0.0000
  39 C_a :4f2+   0.0000  -0.0000   0.0028  -0.0000  -0.0000  -0.0000   0.0359
  40 C_a :4f0   -0.0514  -0.0092  -0.0000  -0.2045  -0.2247  -0.0879  -0.0000
  41 C_a :4f2+   0.0000  -0.0000   0.0903  -0.0000  -0.0000  -0.0000   0.3441
  42 C_a :4f0   -0.0175   0.0412   0.0000   0.0682  -0.3375  -0.4999   0.0000
  43 C_a :4f2+   0.0000  -0.0000  -0.2260  -0.0000  -0.0000  -0.0000   1.0045
  47 C_a :5g0   -0.0072   0.0032  -0.0000  -0.0228  -0.0212  -0.0019  -0.0000
  48 C_a :5g2+   0.0000   0.0000   0.0121  -0.0000  -0.0000   0.0000   0.0088
  50 C_a :5g0   -0.0049  -0.0166  -0.0000  -0.0366  -0.0419  -0.0320   0.0000
  51 C_a :5g2+  -0.0000  -0.0000   0.0105   0.0000   0.0000  -0.0000   0.1099
  53 O_a :1s     0.0038   0.0070   0.0000  -0.0078   0.0031  -0.0144   0.0000
  54 O_a :1s     0.0049   0.1019   0.0000  -0.0163   0.0624   0.0322   0.0000
  55 O_a :1s    -0.0018   0.0179  -0.0000  -0.0125  -0.0129  -0.0281  -0.0000
  56 O_a :1s     0.0823  -0.1062   0.0000   0.2361   0.3709   0.2722   0.0000
  57 O_a :1s     0.2821  -1.9322  -0.0000   1.7694   1.5515   3.2876  -0.0000
  61 O_a :1s     0.1388  -9.5905  -0.0000   5.2483   3.5240  16.1435   0.0000
  62 O_a :1s     0.0465 -18.5816  -0.0000   6.0838   3.3162  18.8059   0.0000
  63 O_a :2pz    0.0029   0.0595  -0.0000  -0.0334   0.0341   0.0232  -0.0000
  64 O_a :2pz   -0.0091  -0.0165   0.0000   0.0049  -0.0283   0.0176   0.0000
  65 O_a :2pz   -0.0045   0.2391   0.0000  -0.1500  -0.0887  -0.3627   0.0000
  66 O_a :2pz    0.6125   1.2680   0.0000  -0.3548   1.4167  -1.9556   0.0000
  70 O_a :2pz    2.9588   3.2733  -0.0000  -1.0103   6.8077  -6.0512  -0.0000
  71 O_a :2pz    4.8621   0.7810  -0.0000  -1.8112   5.2523  -1.7141  -0.0000
  78 O_a :3d0    0.0050  -0.0125   0.0000   0.0077   0.0159   0.0216   0.0000
  80 O_a :3d0   -0.0695  -0.1152   0.0000   0.0277  -0.1791   0.1786   0.0000
  81 O_a :3d2+  -0.0000   0.0000  -0.0268   0.0000   0.0000   0.0000  -0.0667
  82 O_a :3d0   -0.4093  -0.1141  -0.0000   0.0516  -0.9239   0.5498  -0.0000
  83 O_a :3d2+  -0.0000   0.0000  -0.0992   0.0000   0.0000   0.0000  -1.0974
  84 O_a :3d0   -1.0001  -0.3326  -0.0000  -0.3601  -1.5086   2.3333   0.0000
  85 O_a :3d2+  -0.0000   0.0000   0.7012   0.0000   0.0000  -0.0000  -3.7307
  90 O_a :4f0    0.0090   0.0158   0.0000   0.0034   0.0226  -0.0214   0.0000
  92 O_a :4f0    0.0367  -0.0047  -0.0000  -0.0335   0.1056  -0.0075  -0.0000
  93 O_a :4f2+   0.0000  -0.0000   0.0401  -0.0000  -0.0000  -0.0000   0.1116
  94 O_a :4f0    0.1633  -0.0298   0.0000   0.0054   0.1975  -0.3329   0.0000
  95 O_a :4f2+   0.0000  -0.0000  -0.0303  -0.0000  -0.0000   0.0000   0.7327
  99 O_a :5g0   -0.0016  -0.0010  -0.0000   0.0008  -0.0117  -0.0065  -0.0000
 102 O_a :5g0   -0.0143   0.0090   0.0000   0.0114  -0.0112   0.0266   0.0000
 103 O_a :5g2+  -0.0000   0.0000  -0.0011   0.0000   0.0000  -0.0000  -0.0980

    Orbital        15
   1 C_a :1s     0.0446
   2 C_a :1s     0.1919
   3 C_a :1s    -0.0485
   4 C_a :1s     0.8801
   5 C_a :1s     5.9068
   6 C_a :1s     0.0167
   9 C_a :1s    16.5622
  10 C_a :1s     5.1586
  11 C_a :2pz    0.0194
  12 C_a :2pz    0.1301
  13 C_a :2pz    1.0160
  14 C_a :2pz    2.4879
  18 C_a :2pz    2.0167
  19 C_a :2pz    0.4600
  26 C_a :3d0    0.1232
  28 C_a :3d0   -0.0781
  30 C_a :3d0   -1.5629
  32 C_a :3d0   -0.7055
  36 C_a :4f0    0.0101
  40 C_a :4f0   -0.3470
  42 C_a :4f0   -0.8107
  50 C_a :5g0   -0.1429
  54 O_a :1s    -0.1090
  56 O_a :1s     0.1981
  57 O_a :1s    -1.5715
  61 O_a :1s   -11.6200
  62 O_a :1s   -14.1027
  63 O_a :2pz   -0.0492
  64 O_a :2pz   -0.0485
  65 O_a :2pz    0.2841
  66 O_a :2pz    2.5712
  70 O_a :2pz    6.6704
  71 O_a :2pz    0.7150
  80 O_a :3d0   -0.2630
  82 O_a :3d0   -0.1004
  84 O_a :3d0    1.4142
  90 O_a :4f0    0.0386
  92 O_a :4f0    0.0219
  94 O_a :4f0   -0.5308
  99 O_a :5g0   -0.0196
 102 O_a :5g0    0.0720

 Molecular orbitals for symmetry species 2  (B1 )
 ------------------------------------------------

    Orbital         1        2        3        4        5        6        7
   1 C_a :2px   -0.4364  -0.0098  -0.0023  -0.2032   0.1158   0.5316   0.1822
   2 C_a :2px    0.0010  -0.0033   0.0059   0.0209   0.0034   0.0251  -0.0034
   3 C_a :2px    0.0610  -0.0673  -0.2775  -0.0635   0.5584  -0.3575  -0.0230
   4 C_a :2px    0.0903  -0.1861  -1.4086  -0.8900   2.5842  -2.3210  -1.0657
   8 C_a :2px    0.0142  -0.7585  -3.7943  -1.6745   7.3231  -4.7856  -3.2786
   9 C_a :2px    0.0014  -2.2883  -2.8844   0.8818   2.4941  -0.5519   0.0362
  12 C_a :3d1+  -0.0108   0.0013   0.0018   0.0021  -0.0073  -0.0003  -0.0041
  13 C_a :3d1+  -0.0282  -0.0073  -0.0341   0.0102   0.0644  -0.0461  -0.0300
  14 C_a :3d1+  -0.0239  -0.0104  -0.2442  -0.1593   0.5127  -0.4759  -0.6677
  15 C_a :3d1+   0.0013   0.0256  -0.4036  -0.4242   1.1093  -0.9315  -2.8369
  16 C_a :3d1+   0.0032  -0.4298  -0.9786   0.8130   2.9105  -0.4668  -1.3289
  21 C_a :4f1+  -0.0062  -0.0048  -0.0358  -0.0104   0.0786  -0.0562  -0.0779
  23 C_a :4f1+  -0.0098   0.0289  -0.0515  -0.1373   0.1026  -0.2014  -0.4709
  25 C_a :4f1+   0.0009  -0.0049  -0.0045   0.0718   0.2909   0.1009  -1.0237
  29 C_a :5g1+  -0.0003   0.0014  -0.0090  -0.0139   0.0152  -0.0234  -0.0257
  31 C_a :5g1+  -0.0035   0.0080  -0.0038  -0.0283   0.0166  -0.0273  -0.1488
  33 O_a :2px   -0.7907   0.0374  -0.0518   0.1937  -0.2037  -0.3101  -0.1748
  34 O_a :2px   -0.0016   0.0009  -0.0064  -0.0079   0.0188  -0.0123  -0.0409
  35 O_a :2px   -0.0031  -0.0007   0.0473   0.0531  -0.1191   0.0842   0.1845
  36 O_a :2px   -0.0100   0.0454   0.6533   0.5345  -1.4610   1.1447   1.7618
  40 O_a :2px   -0.0321   0.4639   2.6560   1.2153  -5.6953   4.1250   4.2374
  41 O_a :2px   -0.0049   1.8902   5.3564  -0.3201  -5.8955   2.3733   0.5139
  45 O_a :3d1+   0.0181   0.0000   0.0022   0.0028  -0.0034  -0.0078   0.0019
  46 O_a :3d1+   0.0319  -0.0125  -0.0854  -0.0340   0.1955  -0.1531  -0.1810
  47 O_a :3d1+   0.0301  -0.0893  -0.3718  -0.0611   0.6780  -0.5478   0.1272
  48 O_a :3d1+   0.0049  -0.1183  -0.8271  -0.5441   0.6739  -1.7590   2.0960
  53 O_a :4f1+  -0.0066   0.0015   0.0109   0.0055  -0.0231   0.0199   0.0195
  55 O_a :4f1+  -0.0104   0.0175   0.0414  -0.0213  -0.1062   0.0311  -0.0002
  57 O_a :4f1+  -0.0060   0.0415   0.1382   0.0142  -0.0995   0.2074  -0.6200
  61 O_a :5g1+   0.0018  -0.0014  -0.0028   0.0024   0.0121  -0.0005  -0.0121
  63 O_a :5g1+   0.0028  -0.0071  -0.0149   0.0071   0.0121  -0.0134   0.0820

    Orbital         8        9       10       11
   1 C_a :2px   -0.3939  -0.0000   0.3474  -0.2871
   2 C_a :2px    0.0271   0.0000  -0.0931  -0.0212
   3 C_a :2px   -1.6022   0.0000  -0.0855   1.1360
   4 C_a :2px   -7.6139   0.0000   1.7608   0.3427
   8 C_a :2px   -9.7540  -0.0000  -0.4458  -2.0461
   9 C_a :2px   -1.2604  -0.0000  -0.8686  -0.0283
  12 C_a :3d1+   0.0131  -0.0000   0.0042  -0.0095
  13 C_a :3d1+  -0.1760  -0.0000  -0.0494   0.1000
  14 C_a :3d1+  -1.2085   0.0000   0.4855  -0.3786
  15 C_a :3d1+  -1.3044   0.0000   1.7621  -4.3032
  16 C_a :3d1+  -1.9431  -0.0000  -1.1378  -0.7008
  21 C_a :4f1+  -0.1720   0.0000  -0.0152  -0.0609
  22 C_a :4f3+   0.0000  -0.0444  -0.0000   0.0000
  23 C_a :4f1+  -0.1459   0.0000   0.6390  -0.7832
  24 C_a :4f3+   0.0000   0.1947  -0.0000   0.0000
  25 C_a :4f1+   0.3091  -0.0000  -0.8086  -2.6283
  26 C_a :4f3+   0.0000  -1.2924  -0.0000   0.0000
  27 C_a :5g1+  -0.0142  -0.0000  -0.0068  -0.0120
  29 C_a :5g1+  -0.0456   0.0000   0.0548  -0.0214
  30 C_a :5g3+   0.0000   0.0407  -0.0000   0.0000
  31 C_a :5g1+   0.0597   0.0000   0.0752  -0.4446
  32 C_a :5g3+   0.0000  -0.1017  -0.0000   0.0000
  33 O_a :2px    0.0372   0.0000  -0.2383   0.2620
  34 O_a :2px   -0.0338  -0.0000   0.0300  -0.0267
  35 O_a :2px    0.2293  -0.0000  -0.1502   0.2153
  36 O_a :2px    3.1834  -0.0000  -1.4633   1.8810
  40 O_a :2px   12.1129   0.0000  -0.7693   1.9088
  41 O_a :2px    4.2391   0.0000   1.4247   0.3966
  45 O_a :3d1+   0.0168   0.0000  -0.0073  -0.0011
  46 O_a :3d1+  -0.4209   0.0000   0.0320  -0.0669
  47 O_a :3d1+  -2.2290   0.0000  -0.0652   2.1702
  48 O_a :3d1+  -4.0433   0.0000   0.6727   2.5237
  53 O_a :4f1+   0.0455  -0.0000  -0.0005   0.0332
  55 O_a :4f1+   0.2828   0.0000   0.1162  -0.3710
  56 O_a :4f3+  -0.0000  -0.0616   0.0000  -0.0000
  57 O_a :4f1+   0.7759   0.0000   0.2544  -1.0930
  58 O_a :4f3+  -0.0000   0.3232   0.0000  -0.0000
  61 O_a :5g1+  -0.0215  -0.0000  -0.0088   0.0184
  63 O_a :5g1+  -0.0843   0.0000  -0.0647   0.1658

 Molecular orbitals for symmetry species 3  (B2 )
 ------------------------------------------------

    Orbital         1        2        3        4        5        6        7
   1 C_a :2py   -0.4364  -0.0098  -0.0023  -0.2032   0.1158  -0.5316   0.1822
   2 C_a :2py    0.0010  -0.0033   0.0059   0.0209   0.0034  -0.0251  -0.0034
   3 C_a :2py    0.0610  -0.0673  -0.2775  -0.0635   0.5584   0.3575  -0.0230
   4 C_a :2py    0.0903  -0.1861  -1.4086  -0.8900   2.5842   2.3210  -1.0657
   8 C_a :2py    0.0142  -0.7585  -3.7943  -1.6745   7.3231   4.7856  -3.2786
   9 C_a :2py    0.0014  -2.2883  -2.8844   0.8818   2.4941   0.5519   0.0362
  12 C_a :3d1-  -0.0108   0.0013   0.0018   0.0021  -0.0073   0.0003  -0.0041
  13 C_a :3d1-  -0.0282  -0.0073  -0.0341   0.0102   0.0644   0.0461  -0.0300
  14 C_a :3d1-  -0.0239  -0.0104  -0.2442  -0.1593   0.5127   0.4759  -0.6677
  15 C_a :3d1-   0.0013   0.0256  -0.4036  -0.4242   1.1093   0.9315  -2.8369
  16 C_a :3d1-   0.0032  -0.4298  -0.9786   0.8130   2.9105   0.4668  -1.3289
  22 C_a :4f1-  -0.0062  -0.0048  -0.0358  -0.0104   0.0786   0.0562  -0.0779
  24 C_a :4f1-  -0.0098   0.0289  -0.0515  -0.1373   0.1026   0.2014  -0.4709
  26 C_a :4f1-   0.0009  -0.0049  -0.0045   0.0718   0.2909  -0.1009  -1.0237
  30 C_a :5g1-  -0.0003   0.0014  -0.0090  -0.0139   0.0152   0.0234  -0.0257
  32 C_a :5g1-  -0.0035   0.0080  -0.0038  -0.0283   0.0166   0.0273  -0.1488
  33 O_a :2py   -0.7907   0.0374  -0.0518   0.1937  -0.2037   0.3101  -0.1748
  34 O_a :2py   -0.0016   0.0009  -0.0064  -0.0079   0.0188   0.0123  -0.0409
  35 O_a :2py   -0.0031  -0.0007   0.0473   0.0531  -0.1191  -0.0842   0.1845
  36 O_a :2py   -0.0100   0.0454   0.6533   0.5345  -1.4610  -1.1447   1.7618
  40 O_a :2py   -0.0321   0.4639   2.6560   1.2153  -5.6953  -4.1250   4.2374
  41 O_a :2py   -0.0049   1.8902   5.3564  -0.3201  -5.8955  -2.3733   0.5139
  45 O_a :3d1-   0.0181   0.0000   0.0022   0.0028  -0.0034   0.0078   0.0019
  46 O_a :3d1-   0.0319  -0.0125  -0.0854  -0.0340   0.1955   0.1531  -0.1810
  47 O_a :3d1-   0.0301  -0.0893  -0.3718  -0.0611   0.6780   0.5478   0.1272
  48 O_a :3d1-   0.0049  -0.1183  -0.8271  -0.5441   0.6739   1.7590   2.0960
  54 O_a :4f1-  -0.0066   0.0015   0.0109   0.0055  -0.0231  -0.0199   0.0195
  56 O_a :4f1-  -0.0104   0.0175   0.0414  -0.0213  -0.1062  -0.0311  -0.0002
  58 O_a :4f1-  -0.0060   0.0415   0.1382   0.0142  -0.0995  -0.2074  -0.6200
  62 O_a :5g1-   0.0018  -0.0014  -0.0028   0.0024   0.0121   0.0005  -0.0121
  64 O_a :5g1-   0.0028  -0.0071  -0.0149   0.0071   0.0121   0.0134   0.0820

    Orbital         8        9       10       11
   1 C_a :2py   -0.3939   0.0000   0.3474  -0.2871
   2 C_a :2py    0.0271  -0.0000  -0.0931  -0.0212
   3 C_a :2py   -1.6022  -0.0000  -0.0855   1.1360
   4 C_a :2py   -7.6139  -0.0000   1.7608   0.3427
   8 C_a :2py   -9.7540   0.0000  -0.4458  -2.0461
   9 C_a :2py   -1.2604   0.0000  -0.8686  -0.0283
  12 C_a :3d1-   0.0131   0.0000   0.0042  -0.0095
  13 C_a :3d1-  -0.1760   0.0000  -0.0494   0.1000
  14 C_a :3d1-  -1.2085  -0.0000   0.4855  -0.3786
  15 C_a :3d1-  -1.3044  -0.0000   1.7621  -4.3032
  16 C_a :3d1-  -1.9431   0.0000  -1.1378  -0.7008
  21 C_a :4f3-  -0.0000  -0.0444   0.0000  -0.0000
  22 C_a :4f1-  -0.1720  -0.0000  -0.0152  -0.0609
  23 C_a :4f3-  -0.0000   0.1947   0.0000  -0.0000
  24 C_a :4f1-  -0.1459  -0.0000   0.6390  -0.7832
  25 C_a :4f3-  -0.0000  -1.2924   0.0000  -0.0000
  26 C_a :4f1-   0.3091   0.0000  -0.8086  -2.6283
  28 C_a :5g1-  -0.0142   0.0000  -0.0068  -0.0120
  29 C_a :5g3-  -0.0000   0.0407   0.0000  -0.0000
  30 C_a :5g1-  -0.0456  -0.0000   0.0548  -0.0214
  31 C_a :5g3-  -0.0000  -0.1017   0.0000  -0.0000
  32 C_a :5g1-   0.0597  -0.0000   0.0752  -0.4446
  33 O_a :2py    0.0372  -0.0000  -0.2383   0.2620
  34 O_a :2py   -0.0338   0.0000   0.0300  -0.0267
  35 O_a :2py    0.2293   0.0000  -0.1502   0.2153
  36 O_a :2py    3.1834   0.0000  -1.4633   1.8810
  40 O_a :2py   12.1129   0.0000  -0.7693   1.9088
  41 O_a :2py    4.2391  -0.0000   1.4247   0.3966
  45 O_a :3d1-   0.0168  -0.0000  -0.0073  -0.0011
  46 O_a :3d1-  -0.4209  -0.0000   0.0320  -0.0669
  47 O_a :3d1-  -2.2290  -0.0000  -0.0652   2.1702
  48 O_a :3d1-  -4.0433  -0.0000   0.6727   2.5237
  54 O_a :4f1-   0.0455   0.0000  -0.0005   0.0332
  55 O_a :4f3-   0.0000  -0.0616  -0.0000   0.0000
  56 O_a :4f1-   0.2828  -0.0000   0.1162  -0.3710
  57 O_a :4f3-   0.0000   0.3232  -0.0000   0.0000
  58 O_a :4f1-   0.7759  -0.0000   0.2544  -1.0930
  62 O_a :5g1-  -0.0215   0.0000  -0.0088   0.0184
  64 O_a :5g1-  -0.0843  -0.0000  -0.0647   0.1658

 Molecular orbitals for symmetry species 4  (A2 )
 ------------------------------------------------

    Orbital         1        2        3        4        5        6        7
   4 C_a :3d2-   0.0047  -0.0216   0.0184  -0.0036   0.0557   0.0409   0.0000
   5 C_a :3d2-   0.0447   0.5651   0.9165   0.9911  -0.5180  -2.5903   0.0000
   6 C_a :3d2-  -0.1331   2.6183   2.9647   4.1033  -0.8948  -5.2655   0.0000
   7 C_a :3d2-  -1.3807   1.1806  -0.3555   0.7777  -0.3100  -0.0612   0.0000
   9 C_a :4f2-   0.0008  -0.0039  -0.0006  -0.0081   0.0034   0.0124   0.0000
  10 C_a :4f2-   0.0028   0.0359   0.0471   0.1163   0.0106  -0.2217   0.0000
  11 C_a :4f2-   0.0903   0.3441   0.8134   0.5748   0.0648  -2.1371   0.0000
  12 C_a :4f2-  -0.2260   1.0045   0.0367   2.6265   0.2249  -1.5374   0.0000
  13 C_a :5g4-   0.0000   0.0000   0.0000   0.0000   0.0000   0.0000   0.0589
  14 C_a :5g2-  -0.0015   0.0012  -0.0057   0.0100   0.0087   0.0049   0.0000
  15 C_a :5g4-   0.0000   0.0000   0.0000   0.0000   0.0000   0.0000  -0.2693
  16 C_a :5g2-   0.0121   0.0088   0.0606   0.0067  -0.0214  -0.1598   0.0000
  17 C_a :5g4-   0.0000   0.0000   0.0000   0.0000   0.0000   0.0000   1.1761
  18 C_a :5g2-   0.0105   0.1099   0.1541   0.3386   0.3262  -0.5436   0.0000
  21 O_a :3d2-  -0.0007  -0.0020  -0.0035   0.0007   0.0005   0.0102   0.0000
  22 O_a :3d2-   0.0022   0.0049   0.0240   0.0097  -0.0212  -0.0226   0.0000
  23 O_a :3d2-  -0.0268  -0.0667  -0.1587  -0.0727  -0.0002   0.4605   0.0000
  24 O_a :3d2-  -0.0992  -1.0974  -1.7009  -2.3026  -0.5554   5.6576   0.0000
  25 O_a :3d2-   0.7012  -3.7307  -1.2861  -3.7786   1.2812   2.6685   0.0000
  28 O_a :4f2-  -0.0029  -0.0010  -0.0146  -0.0094  -0.0295   0.0248   0.0000
  29 O_a :4f2-   0.0401   0.1116   0.2863   0.2926   0.1674  -0.8892   0.0000
  30 O_a :4f2-  -0.0303   0.7327   0.8026   0.7519  -1.7054  -2.2545   0.0000
  33 O_a :5g4-   0.0000   0.0000   0.0000   0.0000   0.0000   0.0000   0.0221
  34 O_a :5g2-  -0.0030   0.0058  -0.0019  -0.0211  -0.0530   0.0319   0.0000
  35 O_a :5g4-   0.0000   0.0000   0.0000   0.0000   0.0000   0.0000  -0.0851
  36 O_a :5g2-  -0.0011  -0.0980  -0.1268  -0.0987   0.2122   0.3544   0.0000

    Orbital         8        9       10
   3 C_a :3d2-  -0.0226  -0.0027   0.0399
   4 C_a :3d2-   0.0761  -0.0916   0.0345
   5 C_a :3d2-  -0.4141  -2.6558   5.4489
   6 C_a :3d2-  -1.3853  -0.7372   4.7027
   7 C_a :3d2-  -0.4504  -0.0002   0.0751
   9 C_a :4f2-   0.0246   0.0269  -0.0149
  10 C_a :4f2-  -0.1130  -0.3922   0.3977
  11 C_a :4f2-   1.3218  -0.5901   3.4406
  12 C_a :4f2-  -1.2468   0.2254   1.5010
  14 C_a :5g2-  -0.0299   0.0432   0.0136
  16 C_a :5g2-   0.1405  -0.4231   0.1703
  18 C_a :5g2-  -0.1640   1.4095   1.4211
  22 O_a :3d2-   0.0509   0.0126   0.1056
  23 O_a :3d2-  -0.1858   0.3386  -0.6281
  24 O_a :3d2-   0.4702   1.7358  -7.8738
  25 O_a :3d2-   1.6216   0.3638  -2.1293
  28 O_a :4f2-  -0.0342  -0.0375  -0.0520
  29 O_a :4f2-   0.2195  -0.7623   1.3861
  30 O_a :4f2-  -0.7234  -1.7537   2.2557
  34 O_a :5g2-   0.0060   0.0346  -0.0591
  36 O_a :5g2-   0.0335   0.5373  -0.5026

  Total CPU  time used in SIRIUS :  21.64 seconds
  Total wall time used in SIRIUS :  21.67 seconds

 
     Date and time (Linux)  : Wed Jan 11 15:40:02 2023
     Host name              : cn016                                   


                     .---------------------------------------.
                     | End of Wave Function Section (SIRIUS) |
                     `---------------------------------------'



                 .------------------------------------------------.
                 | Starting in Dynamic Property Section (RESPONS) |
                 `------------------------------------------------'


 ----------------------------------------------------------------------------------------
  RESPONSE  -  an MCSCF, MC-srDFT, DFT, SOPPA and SOPPA-srDFT response property program
 ----------------------------------------------------------------------------------------


 -------- OUTPUT FROM RESPONSE INPUT PROCESSING --------




 Linear Response calculation
 ---------------------------

 Print level                                    : IPRLR  =   2
 Maximum number of iterations                   : MAXITL =  60
 Threshold for relative convergence             : THCLR  = 1.000D-03
 Maximum iterations in optimal orbital algorithm: MAXITO =   5

  9 B-frequencies  0.000000D+00  2.015931D-02  4.031862D-02  6.047794D-02  8.063725D-02
  1.007966D-01  1.209559D-01  1.411152D-01  1.612745D-01

    1 second order properties calculated with symmetry no.    1 and labels:

          ZDIPLEN 

    1 second order properties calculated with symmetry no.    2 and labels:

          XDIPLEN 

    1 second order properties calculated with symmetry no.    3 and labels:

          YDIPLEN 


   SCF energy         :     -112.789345079486651
 -- inactive part     :     -135.303416374045753
 -- nuclear repulsion :       22.514071294559098


                     ***************************************
                     *** RHF response calculation (TDHF) ***
                     ***************************************

 ----------------------------------------------------------------
 ----- Linear response calculation
 ----- Symmetry of excitation/property operator(s)    1  ( A1 )
 ----------------------------------------------------------------

 Number of excitations of this symmetry            0
 Number of response properties of this symmetry    1
 Number of C6/C8 properties of this symmetry       0


 Perturbation symmetry.     KSYMOP:           1
 Perturbation spin symmetry.TRPLET:           F
 Orbital variables.         KZWOPT:         621
 Configuration variables.   KZCONF:           0
 Total number of variables. KZVAR :         621


 RSPLR -- linear response calculation for symmetry 1  ( A1 )
 RSPLR -- operator label : ZDIPLEN 
 RSPLR -- operator spin  :   0
 RSPLR -- frequencies    :     0.000000  0.020159  0.040319  0.060478  0.080637
                               0.100797  0.120956  0.141115  0.161274



 ---  SOLVING SETS OF LINEAR EQUATIONS FOR LINEAR RESPONSE PROPERTIES ---

 Operator symmetry = 1  ( A1 ); triplet =   F


 ** RSPCTL MICROITERATION NUMBER    1

       No.  Residual tot.,    conf., and orb.    Bnorm      Frequency 
      ----------------------------------------------------------------
         1    3.04760D+00  0.00D+00  3.05D+00  2.50D+00    0.00000D+00
         2    3.05048D+00  0.00D+00  3.05D+00  2.50D+00    2.01593D-02
         3    3.05917D+00  0.00D+00  3.06D+00  2.52D+00    4.03186D-02
         4    3.07378D+00  0.00D+00  3.07D+00  2.54D+00    6.04779D-02
         5    3.09451D+00  0.00D+00  3.09D+00  2.58D+00    8.06372D-02
         6    3.12167D+00  0.00D+00  3.12D+00  2.63D+00    1.00797D-01
         7    3.15566D+00  0.00D+00  3.16D+00  2.69D+00    1.20956D-01
         8    3.19699D+00  0.00D+00  3.20D+00  2.76D+00    1.41115D-01
         9    3.24634D+00  0.00D+00  3.25D+00  2.85D+00    1.61274D-01

 ** RSPCTL MICROITERATION NUMBER    2

       No.  Residual tot.,    conf., and orb.    Bnorm      Frequency 
      ----------------------------------------------------------------
         1    6.54133D-01  0.00D+00  6.54D-01  3.14D+00    0.00000D+00
         2    6.55280D-01  0.00D+00  6.55D-01  3.15D+00    2.01593D-02
         3    6.58746D-01  0.00D+00  6.59D-01  3.17D+00    4.03186D-02
         4    6.64603D-01  0.00D+00  6.65D-01  3.21D+00    6.04779D-02
         5    6.72977D-01  0.00D+00  6.73D-01  3.26D+00    8.06372D-02
         6    6.84057D-01  0.00D+00  6.84D-01  3.33D+00    1.00797D-01
         7    6.98098D-01  0.00D+00  6.98D-01  3.41D+00    1.20956D-01
         8    7.15448D-01  0.00D+00  7.15D-01  3.52D+00    1.41115D-01
         9    7.36563D-01  0.00D+00  7.37D-01  3.64D+00    1.61274D-01

 ** RSPCTL MICROITERATION NUMBER    3

       No.  Residual tot.,    conf., and orb.    Bnorm      Frequency 
      ----------------------------------------------------------------
         1    8.93223D-02  0.00D+00  8.93D-02  3.17D+00    0.00000D+00
         2    8.95211D-02  0.00D+00  8.95D-02  3.17D+00    2.01593D-02
         3    9.01225D-02  0.00D+00  9.01D-02  3.20D+00    4.03186D-02
         4    9.11422D-02  0.00D+00  9.11D-02  3.23D+00    6.04779D-02
         5    9.26072D-02  0.00D+00  9.26D-02  3.29D+00    8.06372D-02
         6    9.45582D-02  0.00D+00  9.46D-02  3.35D+00    1.00797D-01
         7    9.70521D-02  0.00D+00  9.71D-02  3.44D+00    1.20956D-01
         8    1.00167D-01  0.00D+00  1.00D-01  3.55D+00    1.41115D-01
         9    1.04010D-01  0.00D+00  1.04D-01  3.68D+00    1.61274D-01

 ** RSPCTL MICROITERATION NUMBER    4

       No.  Residual tot.,    conf., and orb.    Bnorm      Frequency 
      ----------------------------------------------------------------
         1    8.57377D-03  0.00D+00  8.57D-03  3.17D+00    0.00000D+00
         2    8.60584D-03  0.00D+00  8.61D-03  3.17D+00    2.01593D-02
         3    8.70308D-03  0.00D+00  8.70D-03  3.20D+00    4.03186D-02
         4    8.86858D-03  0.00D+00  8.87D-03  3.23D+00    6.04779D-02
         5    9.10776D-03  0.00D+00  9.11D-03  3.29D+00    8.06372D-02
         6    9.42877D-03  0.00D+00  9.43D-03  3.35D+00    1.00797D-01
         7    9.84313D-03  0.00D+00  9.84D-03  3.44D+00    1.20956D-01
         8    1.03668D-02  0.00D+00  1.04D-02  3.55D+00    1.41115D-01
         9    1.10215D-02  0.00D+00  1.10D-02  3.68D+00    1.61274D-01

 ** RSPCTL MICROITERATION NUMBER    5

       No.  Residual tot.,    conf., and orb.    Bnorm      Frequency 
      ----------------------------------------------------------------
         1    8.46415D-04  0.00D+00  8.46D-04  3.17D+00    0.00000D+00
         2    8.50334D-04  0.00D+00  8.50D-04  3.17D+00    2.01593D-02
         3    8.62221D-04  0.00D+00  8.62D-04  3.20D+00    4.03186D-02
         4    8.82483D-04  0.00D+00  8.82D-04  3.23D+00    6.04779D-02
         5    9.11828D-04  0.00D+00  9.12D-04  3.29D+00    8.06372D-02
         6    9.51330D-04  0.00D+00  9.51D-04  3.35D+00    1.00797D-01
         7    1.00252D-03  0.00D+00  1.00D-03  3.44D+00    1.20956D-01
         8    1.06752D-03  0.00D+00  1.07D-03  3.55D+00    1.41115D-01
         9    1.14930D-03  0.00D+00  1.15D-03  3.68D+00    1.61274D-01

 *** THE REQUESTED    9 SOLUTION VECTORS CONVERGED

 Convergence of RSP solution vectors, threshold = 1.00D-03
 ---------------------------------------------------------------
 (dimension of paired reduced space:   90)
 RSP solution vector no.    1; norm of residual   2.67D-04
 RSP solution vector no.    2; norm of residual   2.68D-04
 RSP solution vector no.    3; norm of residual   2.70D-04
 RSP solution vector no.    4; norm of residual   2.73D-04
 RSP solution vector no.    5; norm of residual   2.78D-04
 RSP solution vector no.    6; norm of residual   2.84D-04
 RSP solution vector no.    7; norm of residual   2.91D-04
 RSP solution vector no.    8; norm of residual   3.01D-04
 RSP solution vector no.    9; norm of residual   3.12D-04

 *** RSPCTL MICROITERATIONS CONVERGED


           Final output of second order properties from linear response
           ------------------------------------------------------------


@ Spin symmetry of operators: singlet

 Note that minus the linear response function: - << A; B >>(omega) is printed.
 The results are of quadratic accuracy using Sellers formula.

@ FREQUENCY INDEPENDENT SECOND ORDER PROPERTIES

@ -<< ZDIPLEN  ; ZDIPLEN  >> =  1.446881179769E+01

@ FREQUENCY DEPENDENT SECOND ORDER PROPERTIES WITH FREQUENCY :

@    a.u.:  2.0159312D-02
@    cm-1:  4.4244576D+03
@    eV  :  5.4856280D-01
@  kJ/mol:  5.2928267D+01
@    nm  :  2.2601640D+03

@ -<< ZDIPLEN  ; ZDIPLEN  >> =  1.448565133114E+01

@ FREQUENCY DEPENDENT SECOND ORDER PROPERTIES WITH FREQUENCY :

@    a.u.:  4.0318625D-02
@    cm-1:  8.8489153D+03
@    eV  :  1.0971256D+00
@  kJ/mol:  1.0585653D+02
@    nm  :  1.1300820D+03

@ -<< ZDIPLEN  ; ZDIPLEN  >> =  1.453646312573E+01

@ FREQUENCY DEPENDENT SECOND ORDER PROPERTIES WITH FREQUENCY :

@    a.u.:  6.0477937D-02
@    cm-1:  1.3273373D+04
@    eV  :  1.6456884D+00
@  kJ/mol:  1.5878480D+02
@    nm  :  7.5338801D+02

@ -<< ZDIPLEN  ; ZDIPLEN  >> =  1.462214092732E+01

@ FREQUENCY DEPENDENT SECOND ORDER PROPERTIES WITH FREQUENCY :

@    a.u.:  8.0637250D-02
@    cm-1:  1.7697831D+04
@    eV  :  2.1942512D+00
@  kJ/mol:  2.1171307D+02
@    nm  :  5.6504101D+02

@ -<< ZDIPLEN  ; ZDIPLEN  >> =  1.474422289557E+01

@ FREQUENCY DEPENDENT SECOND ORDER PROPERTIES WITH FREQUENCY :

@    a.u.:  1.0079656D-01
@    cm-1:  2.2122288D+04
@    eV  :  2.7428140D+00
@  kJ/mol:  2.6464133D+02
@    nm  :  4.5203281D+02

@ -<< ZDIPLEN  ; ZDIPLEN  >> =  1.490496951127E+01

@ FREQUENCY DEPENDENT SECOND ORDER PROPERTIES WITH FREQUENCY :

@    a.u.:  1.2095587D-01
@    cm-1:  2.6546746D+04
@    eV  :  3.2913768D+00
@  kJ/mol:  3.1756960D+02
@    nm  :  3.7669400D+02

@ -<< ZDIPLEN  ; ZDIPLEN  >> =  1.510748358991E+01

@ FREQUENCY DEPENDENT SECOND ORDER PROPERTIES WITH FREQUENCY :

@    a.u.:  1.4111519D-01
@    cm-1:  3.0971203D+04
@    eV  :  3.8399396D+00
@  kJ/mol:  3.7049787D+02
@    nm  :  3.2288058D+02

@ -<< ZDIPLEN  ; ZDIPLEN  >> =  1.535588563194E+01

@ FREQUENCY DEPENDENT SECOND ORDER PROPERTIES WITH FREQUENCY :

@    a.u.:  1.6127450D-01
@    cm-1:  3.5395661D+04
@    eV  :  4.3885024D+00
@  kJ/mol:  4.2342613D+02
@    nm  :  2.8252050D+02

@ -<< ZDIPLEN  ; ZDIPLEN  >> =  1.565556549380E+01


 Time used in linear response calculation is     22.25 CPU seconds for symmetry 1
 ----------------------------------------------------------------
 ----- Linear response calculation
 ----- Symmetry of excitation/property operator(s)    2  ( B1 )
 ----------------------------------------------------------------

 Number of excitations of this symmetry            0
 Number of response properties of this symmetry    1
 Number of C6/C8 properties of this symmetry       0


 Perturbation symmetry.     KSYMOP:           2
 Perturbation spin symmetry.TRPLET:           F
 Orbital variables.         KZWOPT:         450
 Configuration variables.   KZCONF:           0
 Total number of variables. KZVAR :         450


 RSPLR -- linear response calculation for symmetry 2  ( B1 )
 RSPLR -- operator label : XDIPLEN 
 RSPLR -- operator spin  :   0
 RSPLR -- frequencies    :     0.000000  0.020159  0.040319  0.060478  0.080637
                               0.100797  0.120956  0.141115  0.161274



 ---  SOLVING SETS OF LINEAR EQUATIONS FOR LINEAR RESPONSE PROPERTIES ---

 Operator symmetry = 2  ( B1 ); triplet =   F


 ** RSPCTL MICROITERATION NUMBER    1

       No.  Residual tot.,    conf., and orb.    Bnorm      Frequency 
      ----------------------------------------------------------------
         1    9.18815D-01  0.00D+00  9.19D-01  2.79D+00    0.00000D+00
         2    9.20930D-01  0.00D+00  9.21D-01  2.80D+00    2.01593D-02
         3    9.27362D-01  0.00D+00  9.27D-01  2.82D+00    4.03186D-02
         4    9.38389D-01  0.00D+00  9.38D-01  2.87D+00    6.04779D-02
         5    9.54501D-01  0.00D+00  9.55D-01  2.94D+00    8.06372D-02
         6    9.76455D-01  0.00D+00  9.76D-01  3.03D+00    1.00797D-01
         7    1.00536D+00  0.00D+00  1.01D+00  3.15D+00    1.20956D-01
         8    1.04279D+00  0.00D+00  1.04D+00  3.30D+00    1.41115D-01
         9    1.09105D+00  0.00D+00  1.09D+00  3.48D+00    1.61274D-01

 ** RSPCTL MICROITERATION NUMBER    2

       No.  Residual tot.,    conf., and orb.    Bnorm      Frequency 
      ----------------------------------------------------------------
         1    1.50511D-01  0.00D+00  1.51D-01  2.86D+00    0.00000D+00
         2    1.51182D-01  0.00D+00  1.51D-01  2.87D+00    2.01593D-02
         3    1.53235D-01  0.00D+00  1.53D-01  2.90D+00    4.03186D-02
         4    1.56800D-01  0.00D+00  1.57D-01  2.96D+00    6.04779D-02
         5    1.62112D-01  0.00D+00  1.62D-01  3.04D+00    8.06372D-02
         6    1.69549D-01  0.00D+00  1.70D-01  3.15D+00    1.00797D-01
         7    1.79694D-01  0.00D+00  1.80D-01  3.29D+00    1.20956D-01
         8    1.93440D-01  0.00D+00  1.93D-01  3.48D+00    1.41115D-01
         9    2.12188D-01  0.00D+00  2.12D-01  3.73D+00    1.61274D-01

 ** RSPCTL MICROITERATION NUMBER    3

       No.  Residual tot.,    conf., and orb.    Bnorm      Frequency 
      ----------------------------------------------------------------
         1    2.19581D-02  0.00D+00  2.20D-02  2.86D+00    0.00000D+00
         2    2.21045D-02  0.00D+00  2.21D-02  2.87D+00    2.01593D-02
         3    2.25533D-02  0.00D+00  2.26D-02  2.91D+00    4.03186D-02
         4    2.33353D-02  0.00D+00  2.33D-02  2.96D+00    6.04779D-02
         5    2.45064D-02  0.00D+00  2.45D-02  3.04D+00    8.06372D-02
         6    2.61555D-02  0.00D+00  2.62D-02  3.15D+00    1.00797D-01
         7    2.84183D-02  0.00D+00  2.84D-02  3.30D+00    1.20956D-01
         8    3.15024D-02  0.00D+00  3.15D-02  3.49D+00    1.41115D-01
         9    3.57303D-02  0.00D+00  3.57D-02  3.74D+00    1.61274D-01

 ** RSPCTL MICROITERATION NUMBER    4

       No.  Residual tot.,    conf., and orb.    Bnorm      Frequency 
      ----------------------------------------------------------------
         1    1.89535D-03  0.00D+00  1.90D-03  2.86D+00    0.00000D+00
         2    1.91385D-03  0.00D+00  1.91D-03  2.87D+00    2.01593D-02
         3    1.97071D-03  0.00D+00  1.97D-03  2.91D+00    4.03186D-02
         4    2.07014D-03  0.00D+00  2.07D-03  2.96D+00    6.04779D-02
         5    2.21970D-03  0.00D+00  2.22D-03  3.04D+00    8.06372D-02
         6    2.43120D-03  0.00D+00  2.43D-03  3.15D+00    1.00797D-01
         7    2.72245D-03  0.00D+00  2.72D-03  3.30D+00    1.20956D-01
         8    3.12016D-03  0.00D+00  3.12D-03  3.49D+00    1.41115D-01
         9    3.66535D-03  0.00D+00  3.67D-03  3.74D+00    1.61274D-01

 *** THE REQUESTED    9 SOLUTION VECTORS CONVERGED

 Convergence of RSP solution vectors, threshold = 1.00D-03
 ---------------------------------------------------------------
 (dimension of paired reduced space:   72)
 RSP solution vector no.    1; norm of residual   6.62D-04
 RSP solution vector no.    2; norm of residual   6.66D-04
 RSP solution vector no.    3; norm of residual   6.78D-04
 RSP solution vector no.    4; norm of residual   6.99D-04
 RSP solution vector no.    5; norm of residual   7.30D-04
 RSP solution vector no.    6; norm of residual   7.71D-04
 RSP solution vector no.    7; norm of residual   8.25D-04
 RSP solution vector no.    8; norm of residual   8.94D-04
 RSP solution vector no.    9; norm of residual   9.79D-04

 *** RSPCTL MICROITERATIONS CONVERGED


           Final output of second order properties from linear response
           ------------------------------------------------------------


@ Spin symmetry of operators: singlet

 Note that minus the linear response function: - << A; B >>(omega) is printed.
 The results are of quadratic accuracy using Sellers formula.

@ FREQUENCY INDEPENDENT SECOND ORDER PROPERTIES

@ -<< XDIPLEN  ; XDIPLEN  >> =  1.127280126556E+01

@ FREQUENCY DEPENDENT SECOND ORDER PROPERTIES WITH FREQUENCY :

@    a.u.:  2.0159312D-02
@    cm-1:  4.4244576D+03
@    eV  :  5.4856280D-01
@  kJ/mol:  5.2928267D+01
@    nm  :  2.2601640D+03

@ -<< XDIPLEN  ; XDIPLEN  >> =  1.128992533076E+01

@ FREQUENCY DEPENDENT SECOND ORDER PROPERTIES WITH FREQUENCY :

@    a.u.:  4.0318625D-02
@    cm-1:  8.8489153D+03
@    eV  :  1.0971256D+00
@  kJ/mol:  1.0585653D+02
@    nm  :  1.1300820D+03

@ -<< XDIPLEN  ; XDIPLEN  >> =  1.134186165172E+01

@ FREQUENCY DEPENDENT SECOND ORDER PROPERTIES WITH FREQUENCY :

@    a.u.:  6.0477937D-02
@    cm-1:  1.3273373D+04
@    eV  :  1.6456884D+00
@  kJ/mol:  1.5878480D+02
@    nm  :  7.5338801D+02

@ -<< XDIPLEN  ; XDIPLEN  >> =  1.143036274381E+01

@ FREQUENCY DEPENDENT SECOND ORDER PROPERTIES WITH FREQUENCY :

@    a.u.:  8.0637250D-02
@    cm-1:  1.7697831D+04
@    eV  :  2.1942512D+00
@  kJ/mol:  2.1171307D+02
@    nm  :  5.6504101D+02

@ -<< XDIPLEN  ; XDIPLEN  >> =  1.155856334063E+01

@ FREQUENCY DEPENDENT SECOND ORDER PROPERTIES WITH FREQUENCY :

@    a.u.:  1.0079656D-01
@    cm-1:  2.2122288D+04
@    eV  :  2.7428140D+00
@  kJ/mol:  2.6464133D+02
@    nm  :  4.5203281D+02

@ -<< XDIPLEN  ; XDIPLEN  >> =  1.173135328600E+01

@ FREQUENCY DEPENDENT SECOND ORDER PROPERTIES WITH FREQUENCY :

@    a.u.:  1.2095587D-01
@    cm-1:  2.6546746D+04
@    eV  :  3.2913768D+00
@  kJ/mol:  3.1756960D+02
@    nm  :  3.7669400D+02

@ -<< XDIPLEN  ; XDIPLEN  >> =  1.195602533471E+01

@ FREQUENCY DEPENDENT SECOND ORDER PROPERTIES WITH FREQUENCY :

@    a.u.:  1.4111519D-01
@    cm-1:  3.0971203D+04
@    eV  :  3.8399396D+00
@  kJ/mol:  3.7049787D+02
@    nm  :  3.2288058D+02

@ -<< XDIPLEN  ; XDIPLEN  >> =  1.224338795863E+01

@ FREQUENCY DEPENDENT SECOND ORDER PROPERTIES WITH FREQUENCY :

@    a.u.:  1.6127450D-01
@    cm-1:  3.5395661D+04
@    eV  :  4.3885024D+00
@  kJ/mol:  4.2342613D+02
@    nm  :  2.8252050D+02

@ -<< XDIPLEN  ; XDIPLEN  >> =  1.260972880441E+01


 Time used in linear response calculation is     18.00 CPU seconds for symmetry 2
 ----------------------------------------------------------------
 ----- Linear response calculation
 ----- Symmetry of excitation/property operator(s)    3  ( B2 )
 ----------------------------------------------------------------

 Number of excitations of this symmetry            0
 Number of response properties of this symmetry    1
 Number of C6/C8 properties of this symmetry       0


 Perturbation symmetry.     KSYMOP:           3
 Perturbation spin symmetry.TRPLET:           F
 Orbital variables.         KZWOPT:         450
 Configuration variables.   KZCONF:           0
 Total number of variables. KZVAR :         450


 RSPLR -- linear response calculation for symmetry 3  ( B2 )
 RSPLR -- operator label : YDIPLEN 
 RSPLR -- operator spin  :   0
 RSPLR -- frequencies    :     0.000000  0.020159  0.040319  0.060478  0.080637
                               0.100797  0.120956  0.141115  0.161274



 ---  SOLVING SETS OF LINEAR EQUATIONS FOR LINEAR RESPONSE PROPERTIES ---

 Operator symmetry = 3  ( B2 ); triplet =   F


 ** RSPCTL MICROITERATION NUMBER    1

       No.  Residual tot.,    conf., and orb.    Bnorm      Frequency 
      ----------------------------------------------------------------
         1    9.47481D-01  0.00D+00  9.47D-01  2.79D+00    0.00000D+00
         2    9.49606D-01  0.00D+00  9.50D-01  2.80D+00    2.01593D-02
         3    9.56067D-01  0.00D+00  9.56D-01  2.82D+00    4.03186D-02
         4    9.67135D-01  0.00D+00  9.67D-01  2.87D+00    6.04779D-02
         5    9.83291D-01  0.00D+00  9.83D-01  2.94D+00    8.06372D-02
         6    1.00527D+00  0.00D+00  1.01D+00  3.03D+00    1.00797D-01
         7    1.03416D+00  0.00D+00  1.03D+00  3.15D+00    1.20956D-01
         8    1.07151D+00  0.00D+00  1.07D+00  3.30D+00    1.41115D-01
         9    1.11953D+00  0.00D+00  1.12D+00  3.48D+00    1.61274D-01

 ** RSPCTL MICROITERATION NUMBER    2

       No.  Residual tot.,    conf., and orb.    Bnorm      Frequency 
      ----------------------------------------------------------------
         1    1.44668D-01  0.00D+00  1.45D-01  2.86D+00    0.00000D+00
         2    1.45310D-01  0.00D+00  1.45D-01  2.87D+00    2.01593D-02
         3    1.47277D-01  0.00D+00  1.47D-01  2.90D+00    4.03186D-02
         4    1.50697D-01  0.00D+00  1.51D-01  2.96D+00    6.04779D-02
         5    1.55805D-01  0.00D+00  1.56D-01  3.04D+00    8.06372D-02
         6    1.62975D-01  0.00D+00  1.63D-01  3.15D+00    1.00797D-01
         7    1.72786D-01  0.00D+00  1.73D-01  3.29D+00    1.20956D-01
         8    1.86131D-01  0.00D+00  1.86D-01  3.48D+00    1.41115D-01
         9    2.04403D-01  0.00D+00  2.04D-01  3.73D+00    1.61274D-01

 ** RSPCTL MICROITERATION NUMBER    3

       No.  Residual tot.,    conf., and orb.    Bnorm      Frequency 
      ----------------------------------------------------------------
         1    2.10213D-02  0.00D+00  2.10D-02  2.86D+00    0.00000D+00
         2    2.11622D-02  0.00D+00  2.12D-02  2.87D+00    2.01593D-02
         3    2.15939D-02  0.00D+00  2.16D-02  2.91D+00    4.03186D-02
         4    2.23448D-02  0.00D+00  2.23D-02  2.96D+00    6.04779D-02
         5    2.34664D-02  0.00D+00  2.35D-02  3.04D+00    8.06372D-02
         6    2.50411D-02  0.00D+00  2.50D-02  3.15D+00    1.00797D-01
         7    2.71953D-02  0.00D+00  2.72D-02  3.30D+00    1.20956D-01
         8    3.01229D-02  0.00D+00  3.01D-02  3.49D+00    1.41115D-01
         9    3.41268D-02  0.00D+00  3.41D-02  3.74D+00    1.61274D-01

 ** RSPCTL MICROITERATION NUMBER    4

       No.  Residual tot.,    conf., and orb.    Bnorm      Frequency 
      ----------------------------------------------------------------
         1    1.65369D-03  0.00D+00  1.65D-03  2.86D+00    0.00000D+00
         2    1.66937D-03  0.00D+00  1.67D-03  2.87D+00    2.01593D-02
         3    1.71741D-03  0.00D+00  1.72D-03  2.91D+00    4.03186D-02
         4    1.80095D-03  0.00D+00  1.80D-03  2.96D+00    6.04779D-02
         5    1.92568D-03  0.00D+00  1.93D-03  3.04D+00    8.06372D-02
         6    2.10065D-03  0.00D+00  2.10D-03  3.15D+00    1.00797D-01
         7    2.33972D-03  0.00D+00  2.34D-03  3.30D+00    1.20956D-01
         8    2.66405D-03  0.00D+00  2.66D-03  3.49D+00    1.41115D-01
         9    3.10664D-03  0.00D+00  3.11D-03  3.74D+00    1.61274D-01

 *** THE REQUESTED    9 SOLUTION VECTORS CONVERGED

 Convergence of RSP solution vectors, threshold = 1.00D-03
 ---------------------------------------------------------------
 (dimension of paired reduced space:   72)
 RSP solution vector no.    1; norm of residual   5.78D-04
 RSP solution vector no.    2; norm of residual   5.81D-04
 RSP solution vector no.    3; norm of residual   5.91D-04
 RSP solution vector no.    4; norm of residual   6.08D-04
 RSP solution vector no.    5; norm of residual   6.33D-04
 RSP solution vector no.    6; norm of residual   6.66D-04
 RSP solution vector no.    7; norm of residual   7.09D-04
 RSP solution vector no.    8; norm of residual   7.63D-04
 RSP solution vector no.    9; norm of residual   8.30D-04

 *** RSPCTL MICROITERATIONS CONVERGED


           Final output of second order properties from linear response
           ------------------------------------------------------------


@ Spin symmetry of operators: singlet

 Note that minus the linear response function: - << A; B >>(omega) is printed.
 The results are of quadratic accuracy using Sellers formula.

@ FREQUENCY INDEPENDENT SECOND ORDER PROPERTIES

@ -<< YDIPLEN  ; YDIPLEN  >> =  1.127280130088E+01

@ FREQUENCY DEPENDENT SECOND ORDER PROPERTIES WITH FREQUENCY :

@    a.u.:  2.0159312D-02
@    cm-1:  4.4244576D+03
@    eV  :  5.4856280D-01
@  kJ/mol:  5.2928267D+01
@    nm  :  2.2601640D+03

@ -<< YDIPLEN  ; YDIPLEN  >> =  1.128992536665E+01

@ FREQUENCY DEPENDENT SECOND ORDER PROPERTIES WITH FREQUENCY :

@    a.u.:  4.0318625D-02
@    cm-1:  8.8489153D+03
@    eV  :  1.0971256D+00
@  kJ/mol:  1.0585653D+02
@    nm  :  1.1300820D+03

@ -<< YDIPLEN  ; YDIPLEN  >> =  1.134186168945E+01

@ FREQUENCY DEPENDENT SECOND ORDER PROPERTIES WITH FREQUENCY :

@    a.u.:  6.0477937D-02
@    cm-1:  1.3273373D+04
@    eV  :  1.6456884D+00
@  kJ/mol:  1.5878480D+02
@    nm  :  7.5338801D+02

@ -<< YDIPLEN  ; YDIPLEN  >> =  1.143036278507E+01

@ FREQUENCY DEPENDENT SECOND ORDER PROPERTIES WITH FREQUENCY :

@    a.u.:  8.0637250D-02
@    cm-1:  1.7697831D+04
@    eV  :  2.1942512D+00
@  kJ/mol:  2.1171307D+02
@    nm  :  5.6504101D+02

@ -<< YDIPLEN  ; YDIPLEN  >> =  1.155856338790E+01

@ FREQUENCY DEPENDENT SECOND ORDER PROPERTIES WITH FREQUENCY :

@    a.u.:  1.0079656D-01
@    cm-1:  2.2122288D+04
@    eV  :  2.7428140D+00
@  kJ/mol:  2.6464133D+02
@    nm  :  4.5203281D+02

@ -<< YDIPLEN  ; YDIPLEN  >> =  1.173135334323E+01

@ FREQUENCY DEPENDENT SECOND ORDER PROPERTIES WITH FREQUENCY :

@    a.u.:  1.2095587D-01
@    cm-1:  2.6546746D+04
@    eV  :  3.2913768D+00
@  kJ/mol:  3.1756960D+02
@    nm  :  3.7669400D+02

@ -<< YDIPLEN  ; YDIPLEN  >> =  1.195602540846E+01

@ FREQUENCY DEPENDENT SECOND ORDER PROPERTIES WITH FREQUENCY :

@    a.u.:  1.4111519D-01
@    cm-1:  3.0971203D+04
@    eV  :  3.8399396D+00
@  kJ/mol:  3.7049787D+02
@    nm  :  3.2288058D+02

@ -<< YDIPLEN  ; YDIPLEN  >> =  1.224338806023E+01

@ FREQUENCY DEPENDENT SECOND ORDER PROPERTIES WITH FREQUENCY :

@    a.u.:  1.6127450D-01
@    cm-1:  3.5395661D+04
@    eV  :  4.3885024D+00
@  kJ/mol:  4.2342613D+02
@    nm  :  2.8252050D+02

@ -<< YDIPLEN  ; YDIPLEN  >> =  1.260972895421E+01


 Time used in linear response calculation is     18.01 CPU seconds for symmetry 3

  Total CPU  time used in RESPONSE:  58.27 seconds
  Total wall time used in RESPONSE:  58.31 seconds


                   .-------------------------------------------.
                   | End of Dynamic Property Section (RESPONS) |
                   `-------------------------------------------'

  Total CPU  time used in DALTON:  1 minute  21 seconds
  Total wall time used in DALTON:  1 minute  21 seconds

 
     Date and time (Linux)  : Wed Jan 11 15:41:00 2023
     Host name              : cn016                                   
