

     ************************************************************************
     *************** Dalton - An Electronic Structure Program ***************
     ************************************************************************

    This is output from DALTON release Dalton2020.0 (2020)
         ( Web site: http://daltonprogram.org )

   ----------------------------------------------------------------------------

    NOTE:
     
    Dalton is an experimental code for the evaluation of molecular
    properties using (MC)SCF, DFT, CI, and CC wave functions.
    The authors accept no responsibility for the performance of
    the code or for the correctness of the results.
     
    The code (in whole or part) is provided under a licence and
    is not to be reproduced for further distribution without
    the written permission of the authors or their representatives.
     
    See the home page "http://daltonprogram.org" for further information.
     
    If results obtained with this code are published,
    the appropriate citations would be both of:
     
       K. Aidas, C. Angeli, K. L. Bak, V. Bakken, R. Bast,
       L. Boman, O. Christiansen, R. Cimiraglia, S. Coriani,
       P. Dahle, E. K. Dalskov, U. Ekstroem,
       T. Enevoldsen, J. J. Eriksen, P. Ettenhuber, B. Fernandez,
       L. Ferrighi, H. Fliegl, L. Frediani, K. Hald, A. Halkier,
       C. Haettig, H. Heiberg, T. Helgaker, A. C. Hennum,
       H. Hettema, E. Hjertenaes, S. Hoest, I.-M. Hoeyvik,
       M. F. Iozzi, B. Jansik, H. J. Aa. Jensen, D. Jonsson,
       P. Joergensen, J. Kauczor, S. Kirpekar,
       T. Kjaergaard, W. Klopper, S. Knecht, R. Kobayashi, H. Koch,
       J. Kongsted, A. Krapp, K. Kristensen, A. Ligabue,
       O. B. Lutnaes, J. I. Melo, K. V. Mikkelsen, R. H. Myhre,
       C. Neiss, C. B. Nielsen, P. Norman, J. Olsen,
       J. M. H. Olsen, A. Osted, M. J. Packer, F. Pawlowski,
       T. B. Pedersen, P. F. Provasi, S. Reine, Z. Rinkevicius,
       T. A. Ruden, K. Ruud, V. Rybkin, P. Salek, C. C. M. Samson,
       A. Sanchez de Meras, T. Saue, S. P. A. Sauer,
       B. Schimmelpfennig, K. Sneskov, A. H. Steindal,
       K. O. Sylvester-Hvid, P. R. Taylor, A. M. Teale,
       E. I. Tellgren, D. P. Tew, A. J. Thorvaldsen, L. Thoegersen,
       O. Vahtras, M. A. Watson, D. J. D. Wilson, M. Ziolkowski
       and H. Agren,
       "The Dalton quantum chemistry program system",
       WIREs Comput. Mol. Sci. 2014, 4:269–284 (doi: 10.1002/wcms.1172)
     
    and
     
       Dalton, a molecular electronic structure program,
       Release Dalton2020.0 (2020), see http://daltonprogram.org
   ----------------------------------------------------------------------------

    Authors in alphabetical order (Major contribution(s) in parenthesis):

  Kestutis Aidas,           Vilnius University,           Lithuania   (QM/MM)
  Celestino Angeli,         University of Ferrara,        Italy       (NEVPT2)
  Keld L. Bak,              UNI-C,                        Denmark     (AOSOPPA, non-adiabatic coupling, magnetic properties)
  Vebjoern Bakken,          University of Oslo,           Norway      (DALTON; geometry optimizer, symmetry detection)
  Radovan Bast,             UiT The Arctic U. of Norway,  Norway      (DALTON installation and execution frameworks)
  Pablo Baudin,             University of Valencia,       Spain       (Cholesky excitation energies)
  Linus Boman,              NTNU,                         Norway      (Cholesky decomposition and subsystems)
  Bruno N. Cabral Tenorio,  Technical Univ. of Denmark,   Denmark     (Lanczos-based CC methods)
  Ove Christiansen,         Aarhus University,            Denmark     (CC module)
  Renzo Cimiraglia,         University of Ferrara,        Italy       (NEVPT2)
  Sonia Coriani,            Technical Univ. of Denmark,   Denmark     (CC and RESPONS modules)
  Janusz Cukras,            University of Warsaw,         Poland      (MChD in RESPONS)
  Paal Dahle,               University of Oslo,           Norway      (Parallelization)
  Erik K. Dalskov,          UNI-C,                        Denmark     (SOPPA)
  Thomas Enevoldsen,        Univ. of Southern Denmark,    Denmark     (SOPPA)
  Janus J. Eriksen,         Aarhus University,            Denmark     (Polarizable embedding, TDA)
  Rasmus Faber,             Technical Univ. of Denmark,   Denmark     (Vib.avg. NMR w. SOPPA, parallel AO-SOPPA, CVS-CC and EOMCC)
  Tobias Fahleson,          KTH Stockholm,                Sweden      (Damped cubic response)
  Berta Fernandez,          U. of Santiago de Compostela, Spain       (Doublet spin, ESR in RESPONS)
  Lara Ferrighi,            Aarhus University,            Denmark     (PCM Cubic response)
  Heike Fliegl,             University of Oslo,           Norway      (CCSD(R12))
  Luca Frediani,            UiT The Arctic U. of Norway,  Norway      (PCM)
  Emmanuel Fromager,        Univ. Strasbourg,             France      (MC-srDFT)
  Bin Gao,                  UiT The Arctic U. of Norway,  Norway      (Gen1Int library)
  Andre S. P. Gomes,        CNRS/Universite de Lille,     France      (Frozen density embedding)
  Christof Haettig,         Ruhr-University Bochum,       Germany     (CC module)
  Kasper Hald,              Aarhus University,            Denmark     (CC module)
  Asger Halkier,            Aarhus University,            Denmark     (CC module)
  Frederik Beyer Hansen,    University of Copenhagen,     Denmark     (Parallel AO-SOPPA)
  Erik D. Hedegaard,        Univ. of Southern Denmark,    Denmark     (Polarizable embedding, QM/MM, and MC-srDFT)
  Hanne Heiberg,            University of Oslo,           Norway      (Geometry analysis, selected one-electron integrals)
  Trygve Helgaker,          University of Oslo,           Norway      (DALTON; ABACUS, ERI, DFT modules, London, and much more)
  Alf Christian Hennum,     University of Oslo,           Norway      (Parity violation)
  Hinne Hettema,            University of Auckland,       New Zealand (Quadratic response in RESPONS; SIRIUS supersymmetry)
  Eirik Hjertenaes,         NTNU,                         Norway      (Cholesky decomposition)
  Pi A. B. Haase,           University of Copenhagen,     Denmark     (Triplet AO-SOPPA)
  Maria Francesca Iozzi,    University of Oslo,           Norway      (RPA)
  Christoph Jacob           TU Braunschweig               Germany     (Frozen density embedding)
  Brano Jansik              Technical Univ. of Ostrava    Czech Rep.  (DFT cubic response)
  Hans Joergen Aa. Jensen,  Univ. of Southern Denmark,    Denmark     (DALTON; SIRIUS, RESPONS, ABACUS, MC-srDFT, and much more)
  Dan Jonsson,              UiT The Arctic U. of Norway,  Norway      (Cubic response in RESPONS module)
  Poul Joergensen,          Aarhus University,            Denmark     (RESPONS, ABACUS, and CC modules)
  Maciej Kaminski,          University of Warsaw,         Poland      (CPPh in RESPONS)
  Joanna Kauczor,           Linkoeping University,        Sweden      (Complex polarization propagator (CPP) module)
  Sheela Kirpekar,          Univ. of Southern Denmark,    Denmark     (Mass-velocity & Darwin integrals)
  Erik Kjellgren,           Univ. of Southern Denmark,    Denmark     (MC-srDFT)
  Wim Klopper,              KIT Karlsruhe,                Germany     (R12 code in CC, SIRIUS, and ABACUS modules)
  Stefan Knecht,            ETH Zurich,                   Switzerland (Parallel CI and MCSCF, MC-srDFT)
  Rika Kobayashi,           Australian National Univ.,    Australia   (DIIS in CC, London in MCSCF)
  Henrik Koch,              NTNU,                         Norway      (CC module, Cholesky decomposition)
  Jacob Kongsted,           Univ. of Southern Denmark,    Denmark     (Polarizable embedding, polarizable density embedding, QM/MM)
  Andrea Ligabue,           University of Modena,         Italy       (CTOCD, AOSOPPA)
  Nanna H. List             Univ. of Southern Denmark,    Denmark     (Polarizable embedding)
  Ola B. Lutnaes,           University of Oslo,           Norway      (DFT Hessian)
  Juan I. Melo,             University of Buenos Aires,   Argentina   (LRESC, Relativistic Effects on NMR Shieldings)
  Kurt V. Mikkelsen,        University of Copenhagen,     Denmark     (MC-SCRF and QM/MM)
  Rolf H. Myhre,            NTNU,                         Norway      (Subsystems and CC3)
  Christian Neiss,          Univ. Erlangen-Nuernberg,     Germany     (CCSD(R12))
  Christian B. Nielsen,     University of Copenhagen,     Denmark     (QM/MM)
  Patrick Norman,           KTH Stockholm,                Sweden      (Cubic response and complex frequency response in RESPONS)
  Jeppe Olsen,              Aarhus University,            Denmark     (SIRIUS CI/density modules)
  Jogvan Magnus H. Olsen,   Aarhus University,            Denmark     (Polarizable embedding and polarizable density embedding)
  Anders Osted,             Copenhagen University,        Denmark     (QM/MM)
  Martin J. Packer,         University of Sheffield,      UK          (SOPPA)
  Filip Pawlowski,          Kazimierz Wielki University,  Poland      (CC3)
  Morten N. Pedersen,       Univ. of Southern Denmark,    Denmark     (Polarizable embedding)
  Thomas B. Pedersen,       University of Oslo,           Norway      (Cholesky decomposition)
  Patricio F. Provasi,      University of Northeastern,   Argentina   (Analysis of coupling constants in localized orbitals)
  Peter Reinholdt,          Univ. of Southern Denmark,    Denmark     (Polarizable embedding and polarizable density embedding)
  Zilvinas Rinkevicius,     KTH Stockholm,                Sweden      (open-shell DFT, ESR)
  Elias Rudberg,            KTH Stockholm,                Sweden      (DFT grid and basis info)
  Torgeir A. Ruden,         University of Oslo,           Norway      (Numerical derivatives in ABACUS)
  Kenneth Ruud,             UiT The Arctic U. of Norway,  Norway      (DALTON; ABACUS magnetic properties and much more)
  Pawel Salek,              KTH Stockholm,                Sweden      (DALTON; DFT code)
  Claire C. M. Samson       University of Karlsruhe       Germany     (Boys localization, r12 integrals in ERI)
  Alfredo Sanchez de Meras, University of Valencia,       Spain       (CC module, Cholesky decomposition)
  Trond Saue,               Paul Sabatier University,     France      (direct Fock matrix construction)
  Stephan P. A. Sauer,      University of Copenhagen,     Denmark     (SOPPA(CCSD), SOPPA prop., AOSOPPA, vibrational g-factors)
  Bernd Schimmelpfennig,    Forschungszentrum Karlsruhe,  Germany     (AMFI module)
  Anna K. Schnack-Petersen, University of Copenhagen,     Denmark     (RPA(D) and HRPA(D) properties in AOSOPPA)
  Kristian Sneskov,         Aarhus University,            Denmark     (Polarizable embedding, QM/MM)
  Arnfinn H. Steindal,      UiT The Arctic U. of Norway,  Norway      (parallel QM/MM, polarizable embedding)
  Casper Steinmann,         Aalborg University,           Denmark     (QFIT, polarizable embedding)
  K. O. Sylvester-Hvid,     University of Copenhagen,     Denmark     (MC-SCRF)
  Peter R. Taylor,          VLSCI/Univ. of Melbourne,     Australia   (Symmetry handling ABACUS, integral transformation)
  Andrew M. Teale,          University of Nottingham,     England     (DFT-AC, DFT-D)
  David P. Tew,             University of Bristol,        England     (CCSD(R12))
  Julien Toulouse,          Sorbonne Univ.,               France      (MC-srDFT)
  Olav Vahtras,             KTH Stockholm,                Sweden      (Triplet response, spin-orbit, ESR, TDDFT, open-shell DFT)
  Lucas Visscher,           Vrije Universiteit Amsterdam, Netherlands (Frozen density embedding)
  David J. Wilson,          La Trobe University,          Australia   (DFT Hessian and DFT magnetizabilities)
  Hans Agren,               KTH Stockholm,                Sweden      (SIRIUS module, RESPONS, MC-SCRF solvation)
 --------------------------------------------------------------------------------

     Date and time (Linux)  : Wed Jan 11 14:21:37 2023
     Host name              : cn023                                   

 * Work memory size             :    64000000 =  488.28 megabytes.

 * Directories for basis set searches:
   1) /gpfs/projects/rjh/adrian/fd_compare/dalton/hf/CO/dipole
   2) /gpfs/projects/rjh/adrian/dalton/build/basis


Compilation information
-----------------------

 Who compiled             | ahurtado
 Host                     | sn-mem
 System                   | Linux-3.10.0-1160.24.1.el7.x86_64
 CMake generator          | Unix Makefiles
 Processor                | x86_64
 64-bit integers          | OFF
 MPI                      | ON
 Fortran compiler         | /gpfs/software/intel/oneAPI/2021_4/mpi/2021.4.0/bi
                          | n/mpif90
 Fortran compiler version | GNU Fortran (GCC) 11.2.0
 C compiler               | /gpfs/software/intel/oneAPI/2021_4/mpi/2021.4.0/bi
                          | n/mpicc
 C compiler version       | gcc (GCC) 11.2.0
 C++ compiler             | /gpfs/software/intel/oneAPI/2021_4/mpi/2021.4.0/bi
                          | n/mpicxx
 C++ compiler version     | unknown
 BLAS                     | /gpfs/software/intel/oneAPI/2021_4/mkl/2021.4.0/li
                          | b/intel64/libmkl_gf_lp64.so;/gpfs/software/intel/o
                          | neAPI/2021_4/mkl/2021.4.0/lib/intel64/libmkl_seque
                          | ntial.so;/gpfs/software/intel/oneAPI/2021_4/mkl/20
                          | 21.4.0/lib/intel64/libmkl_core.so;/usr/lib64/libpt
                          | hread.so;/usr/lib64/libm.so
 LAPACK                   | /gpfs/software/intel/oneAPI/2021_4/mkl/2021.4.0/li
                          | b/intel64/libmkl_lapack95_lp64.a;/gpfs/software/in
                          | tel/oneAPI/2021_4/mkl/2021.4.0/lib/intel64/libmkl_
                          | gf_lp64.so
 Static linking           | OFF
 Last Git revision        | 66052b3af5ea7225e31178bf9a8b031913c72190
 Git branch               | (HEAD detached at Dalton2020.0)
 Configuration time       | 2023-01-11 13:33:37.731835

 * MPI parallel run using 20 processes.


   Content of the .dal input file
 ----------------------------------

**DALTON INPUT
.RUN RESPONSE
.DIRECT
**WAVE FUNCTIONS
.HF
**RESPONSE
*LINEAR
.DIPLEN
.FREQUENCIES
9
0.0 0.0201593125 0.040318625 0.060477937499999995 0.08063725 0.10079656249999999 0.12095587499999999
**END OF DALTON INPUT


   Content of the .mol file
 ----------------------------

BASIS
aug-cc-pCVTZ
blah
blah
Atomtype=2 Atomic
Charge=6 Atoms=1
C_a 0.000000000000 0.000000000000 0.000000000000
Charge=8 Atoms=1
O_a 0.000000000000 0.000000000000 2.132000000000


       *******************************************************************
       *********** Output from DALTON general input processing ***********
       *******************************************************************

 --------------------------------------------------------------------------------
   Overall default print level:    0
   Print level for DALTON.STAT:    1

    Parallel calculation using MPI
    AO-direct calculation (in sections where implemented)
    HERMIT 1- and 2-electron integral sections will be executed
    "Old" integral transformation used (limited to max 255 basis functions)
    Wave function sections will be executed (SIRIUS module)
    Dynamic molecular response properties section will be executed (RESPONSE module)
 --------------------------------------------------------------------------------


   ****************************************************************************
   *************** Output of molecule and basis set information ***************
   ****************************************************************************


    The two title cards from your ".mol" input:
    ------------------------------------------------------------------------
 1: blah                                                                    
 2: blah                                                                    
    ------------------------------------------------------------------------

  Atomic type no.    1
  --------------------
  Nuclear charge:   6.00000
  Number of symmetry independent centers:    1
  Number of basis sets to read;    2
  Basis set file used for this atomic type with Z =   6 :
     "/gpfs/projects/rjh/adrian/dalton/build/basis/aug-cc-pCVTZ"

  Atomic type no.    2
  --------------------
  Nuclear charge:   8.00000
  Number of symmetry independent centers:    1
  Number of basis sets to read;    2
  Basis set file used for this atomic type with Z =   8 :
     "/gpfs/projects/rjh/adrian/dalton/build/basis/aug-cc-pCVTZ"


                      SYMADD: Requested addition of symmetry
                      --------------------------------------

 Symmetry test threshold:  5.00E-06

@   The molecule is centered at center of mass and rotated
@   so principal axes of inertia are along coordinate axes.

 Symmetry class found: C(oo,v)        

 Symmetry Independent Centres             
 ----------------------------
O_a    8 :      0.00000000     0.00000000     0.91388025  Isotope  1
C_a    6 :      0.00000000     0.00000000    -1.21811975  Isotope  1

 The following symmetry elements were found:   X  Y     


                         SYMGRP: Point group information
                         -------------------------------

@    Full point group is: C(oo,v)        
@    Represented as:      C2v

@  * The irrep name for each symmetry:    1: A1     2: B1     3: B2     4: A2 

   * The point group was generated by:

      Reflection in the yz-plane
      Reflection in the xz-plane

   * Group multiplication table

        |  E   C2z  Oxz  Oyz
   -----+--------------------
     E  |  E   C2z  Oxz  Oyz
    C2z | C2z   E   Oyz  Oxz
    Oxz | Oxz  Oyz   E   C2z
    Oyz | Oyz  Oxz  C2z   E 

   * Character table

        |  E   C2z  Oxz  Oyz
   -----+--------------------
    A1  |   1    1    1    1
    B1  |   1   -1    1   -1
    B2  |   1   -1   -1    1
    A2  |   1    1   -1   -1

   * Direct product table

        | A1   B1   B2   A2 
   -----+--------------------
    A1  | A1   B1   B2   A2 
    B1  | B1   A1   A2   B2 
    B2  | B2   A2   A1   B1 
    A2  | A2   B2   B1   A1 


                                 Isotopic Masses
                                 ---------------

                           C_a        12.000000
                           O_a        15.994915

                       Total mass:    27.994915 amu
                       Natural abundance:  98.663 %

 Center-of-mass coordinates (a.u.):    0.000000    0.000000    0.000000
 Center-of-mass coordinates (Angs):    0.000000    0.000000    0.000000


  Atoms and basis sets
  --------------------

  Number of atom types :    2
  Total number of atoms:    2

  Basis set used is "aug-cc-pCVTZ" from the basis set library.

  label    atoms   charge   prim   cont     basis
  ----------------------------------------------------------------------
  C_          1    6.0000    71    59      [13s8p4d2f|7s6p4d2f]                               
  O_          1    8.0000    71    59      [13s8p4d2f|7s6p4d2f]                               
  ----------------------------------------------------------------------
  total:      2   14.0000   142   118
  ----------------------------------------------------------------------
  Spherical harmonic basis used.

  Threshold for neglecting AO integrals:  1.00D-12


  Cartesian Coordinates (a.u.)
  ----------------------------

  Total number of coordinates:    6
  C_a     :     1  x   0.0000000000    2  y   0.0000000000    3  z  -1.2181197471
  O_a     :     4  x   0.0000000000    5  y   0.0000000000    6  z   0.9138802529


  Symmetry Coordinates
  --------------------

  Number of coordinates in each symmetry:     2    2    2    0

  Symmetry  A1  ( 1)

    1   C_a   z    3
    2   O_a   z    6

  Symmetry  B1  ( 2)

    3   C_a   x    1
    4   O_a   x    4

  Symmetry  B2  ( 3)

    5   C_a   y    2
    6   O_a   y    5


   Interatomic separations (in Angstrom):
   --------------------------------------

            C_a         O_a   
            ------      ------
 C_a   :    0.000000
 O_a   :    1.128206    0.000000


  Max    interatomic separation is    1.1282 Angstrom (    2.1320 Bohr)
  between atoms    2 and    1, "O_a   " and "C_a   ".

  Min YX interatomic separation is    1.1282 Angstrom (    2.1320 Bohr)


  Bond distances (Angstrom):
  --------------------------

                  atom 1     atom 2       distance
                  ------     ------       --------
  bond distance:  O_a        C_a          1.128206




 Principal moments of inertia (u*A**2) and principal axes
 --------------------------------------------------------

   IA       0.000000          0.000000    0.000000    1.000000
   IB       8.726914          0.000000    1.000000    0.000000
   IC       8.726914          1.000000    0.000000    0.000000


 Rotational constants
 --------------------

@    The molecule is linear.

               B =        57910.39 MHz     (    1.931683 cm-1)


@  Nuclear repulsion energy :   22.514071294559 Hartree


  Symmetry Orbitals
  -----------------

  Number of orbitals in each symmetry:          50   28   28   12


  Symmetry  A1 ( 1)

    1     C_a      1s         1
    2     C_a      1s         2
    3     C_a      1s         3
    4     C_a      1s         4
    5     C_a      1s         5
    6     C_a      1s         6
    7     C_a      1s         7
    8     C_a      2pz       10
    9     C_a      2pz       13
   10     C_a      2pz       16
   11     C_a      2pz       19
   12     C_a      2pz       22
   13     C_a      2pz       25
   14     C_a      3d0       28
   15     C_a      3d2+      30
   16     C_a      3d0       33
   17     C_a      3d2+      35
   18     C_a      3d0       38
   19     C_a      3d2+      40
   20     C_a      3d0       43
   21     C_a      3d2+      45
   22     C_a      4f0       49
   23     C_a      4f2+      51
   24     C_a      4f0       56
   25     C_a      4f2+      58
   26     O_a      1s        60
   27     O_a      1s        61
   28     O_a      1s        62
   29     O_a      1s        63
   30     O_a      1s        64
   31     O_a      1s        65
   32     O_a      1s        66
   33     O_a      2pz       69
   34     O_a      2pz       72
   35     O_a      2pz       75
   36     O_a      2pz       78
   37     O_a      2pz       81
   38     O_a      2pz       84
   39     O_a      3d0       87
   40     O_a      3d2+      89
   41     O_a      3d0       92
   42     O_a      3d2+      94
   43     O_a      3d0       97
   44     O_a      3d2+      99
   45     O_a      3d0      102
   46     O_a      3d2+     104
   47     O_a      4f0      108
   48     O_a      4f2+     110
   49     O_a      4f0      115
   50     O_a      4f2+     117


  Symmetry  B1 ( 2)

   51     C_a      2px        8
   52     C_a      2px       11
   53     C_a      2px       14
   54     C_a      2px       17
   55     C_a      2px       20
   56     C_a      2px       23
   57     C_a      3d1+      29
   58     C_a      3d1+      34
   59     C_a      3d1+      39
   60     C_a      3d1+      44
   61     C_a      4f1+      50
   62     C_a      4f3+      52
   63     C_a      4f1+      57
   64     C_a      4f3+      59
   65     O_a      2px       67
   66     O_a      2px       70
   67     O_a      2px       73
   68     O_a      2px       76
   69     O_a      2px       79
   70     O_a      2px       82
   71     O_a      3d1+      88
   72     O_a      3d1+      93
   73     O_a      3d1+      98
   74     O_a      3d1+     103
   75     O_a      4f1+     109
   76     O_a      4f3+     111
   77     O_a      4f1+     116
   78     O_a      4f3+     118


  Symmetry  B2 ( 3)

   79     C_a      2py        9
   80     C_a      2py       12
   81     C_a      2py       15
   82     C_a      2py       18
   83     C_a      2py       21
   84     C_a      2py       24
   85     C_a      3d1-      27
   86     C_a      3d1-      32
   87     C_a      3d1-      37
   88     C_a      3d1-      42
   89     C_a      4f3-      46
   90     C_a      4f1-      48
   91     C_a      4f3-      53
   92     C_a      4f1-      55
   93     O_a      2py       68
   94     O_a      2py       71
   95     O_a      2py       74
   96     O_a      2py       77
   97     O_a      2py       80
   98     O_a      2py       83
   99     O_a      3d1-      86
  100     O_a      3d1-      91
  101     O_a      3d1-      96
  102     O_a      3d1-     101
  103     O_a      4f3-     105
  104     O_a      4f1-     107
  105     O_a      4f3-     112
  106     O_a      4f1-     114


  Symmetry  A2 ( 4)

  107     C_a      3d2-      26
  108     C_a      3d2-      31
  109     C_a      3d2-      36
  110     C_a      3d2-      41
  111     C_a      4f2-      47
  112     C_a      4f2-      54
  113     O_a      3d2-      85
  114     O_a      3d2-      90
  115     O_a      3d2-      95
  116     O_a      3d2-     100
  117     O_a      4f2-     106
  118     O_a      4f2-     113

  Symmetries of electric field:  B1 (2)  B2 (3)  A1 (1)

  Symmetries of magnetic field:  B2 (3)  B1 (2)  A2 (4)


                     .---------------------------------------.
                     | Starting in Integral Section (HERMIT) |
                     `---------------------------------------'



 ***************************************************************************************
 ****************** Output from **INTEGRALS input processing (HERMIT) ******************
 ***************************************************************************************


 - Using defaults, no **INTEGRALS input found

 Default print level:        1

 Calculation of one-electron Hamiltonian integrals.

 Center of mass  (bohr):      0.000000000000      0.000000000000      0.000000000000
 Operator center (bohr):      0.000000000000      0.000000000000      0.000000000000
 Gauge origin    (bohr):      0.000000000000      0.000000000000      0.000000000000
 Dipole origin   (bohr):      0.000000000000      0.000000000000      0.000000000000


     ************************************************************************
     ************************** Output from HERINT **************************
     ************************************************************************



                      Nuclear contribution to dipole moments
                      --------------------------------------

                 au               Debye          C m (/(10**-30)

      z      0.00232354         0.00590585         0.01969980


  Total CPU  time used in HERMIT:   0.17 seconds
  Total wall time used in HERMIT:   0.18 seconds


                        .----------------------------------.
                        | End of Integral Section (HERMIT) |
                        `----------------------------------'



                   .--------------------------------------------.
                   | Starting in Wave Function Section (SIRIUS) |
                   `--------------------------------------------'


 *** Output from Huckel module :

     Using EWMO model:          T
     Using EHT  model:          F
     Number of Huckel orbitals each symmetry:    6    2    2    0

 EWMO - Energy Weighted Maximum Overlap - is a Huckel type method,
        which normally is better than Extended Huckel Theory.
 Reference: Linderberg and Ohrn, Propagators in Quantum Chemistry (Wiley, 1973)

 Huckel EWMO eigenvalues for symmetry :  1
          -20.685999     -11.349525      -1.578830      -0.796795      -0.456115
           -0.137637

 Huckel EWMO eigenvalues for symmetry :  2
           -0.717188      -0.305912

 Huckel EWMO eigenvalues for symmetry :  3
           -0.717188      -0.305912

 **********************************************************************
 *SIRIUS* a direct, restricted step, second order MCSCF program       *
 **********************************************************************

 
     Date and time (Linux)  : Wed Jan 11 14:21:38 2023
     Host name              : cn023                                   

 Title lines from ".mol" input file:
     blah                                                                    
     blah                                                                    

 Print level on unit LUPRI =   2 is   0
 Print level on unit LUW4  =   2 is   5

@    Restricted, closed shell Hartree-Fock calculation.

@    Time-dependent Hartree-Fock calculation (random phase approximation).
 Fock matrices are calculated directly and in parallel without use of integrals on disk.

 Initial molecular orbitals are obtained according to
 ".MOSTART EWMO  " input option

     Wave function specification
     ============================
@    Wave function type        --- HF ---
@    Number of closed shell electrons          14
@    Number of electrons in active shells       0
@    Total charge of the molecule               0

@    Spin multiplicity and 2 M_S                1         0
@    Total number of symmetries                 4 (point group: C2v)
@    Reference state symmetry                   1 (irrep name : A1 )

     Orbital specifications
     ======================
@    Abelian symmetry species          All |    1    2    3    4
@                                          |  A1   B1   B2   A2 
                                       --- |  ---  ---  ---  ---
@    Total number of orbitals          118 |   50   28   28   12
@    Number of basis functions         118 |   50   28   28   12

      ** Automatic occupation of RHF orbitals **

      -- Initial occupation of symmetries is determined from extended Huckel guess.           
      -- Initial occupation of symmetries is :
@    Occupied SCF orbitals               7 |    5    1    1    0

     Maximum number of Fock   iterations      0
     Maximum number of DIIS   iterations     60
     Maximum number of QC-SCF iterations     60
     Threshold for SCF convergence     1.00D-05


 ***********************************************
 ***** DIIS acceleration of SCF iterations *****
 ***********************************************

 C1-DIIS algorithm; max error vectors =    8

 Automatic occupation of symmetries with  14 electrons.

 Iter     Total energy    Error norm  Delta(E)    SCF occupation
 -----------------------------------------------------------------------------
   1  Screening settings (-IFTHRS, JTDIIS, DIFDEN, times)   -7    1    T  1.04D-01  1.04D-01
@  1  -112.497201349       2.62D+00  -1.12D+02     5   1   1   0
      Virial theorem: -V/T =      2.005833
@    MULPOP   C_a     0.31; O_a    -0.31; 
   1  Level shift: doubly occupied orbital energies shifted by -2.00D-01
 -----------------------------------------------------------------------------
   2  Screening settings (-IFTHRS, JTDIIS, DIFDEN, times)   -7    2    T  8.56D-02  8.60D-02
@  2  -112.767874805       5.36D-01  -2.71D-01     5   1   1   0
      Virial theorem: -V/T =      1.998430
@    MULPOP   C_a     0.25; O_a    -0.25; 
   2  Level shift: doubly occupied orbital energies shifted by -5.00D-02
 -----------------------------------------------------------------------------
   3  Screening settings (-IFTHRS, JTDIIS, DIFDEN, times)   -7    3    T  8.32D-02  8.30D-02
@  3  -112.780670056       1.28D-01  -1.28D-02     5   1   1   0
      Virial theorem: -V/T =      2.000962
@    MULPOP   C_a     0.29; O_a    -0.29; 
   3  Level shift: doubly occupied orbital energies shifted by -1.25D-02
 -----------------------------------------------------------------------------
   4  Screening settings (-IFTHRS, JTDIIS, DIFDEN, times)  -11    4    F  8.59D-02  8.60D-02
@  4  -112.781881992       6.15D-02  -1.21D-03     5   1   1   0
      Virial theorem: -V/T =      2.001888
@    MULPOP   C_a     0.27; O_a    -0.27; 
 -----------------------------------------------------------------------------
   5  Screening settings (-IFTHRS, JTDIIS, DIFDEN, times)  -11    5    T  8.46D-02  8.50D-02
@  5  -112.782068525       2.10D-02  -1.87D-04     5   1   1   0
      Virial theorem: -V/T =      2.001240
@    MULPOP   C_a     0.29; O_a    -0.29; 
 -----------------------------------------------------------------------------
   6  Screening settings (-IFTHRS, JTDIIS, DIFDEN, times)  -11    6    T  8.25D-02  8.30D-02
@  6  -112.782093443       3.09D-03  -2.49D-05     5   1   1   0
      Virial theorem: -V/T =      2.001414
@    MULPOP   C_a     0.29; O_a    -0.29; 
 -----------------------------------------------------------------------------
   7  Screening settings (-IFTHRS, JTDIIS, DIFDEN, times)  -11    7    T  7.75D-02  7.80D-02
@  7  -112.782094282       5.14D-04  -8.39D-07     5   1   1   0
      Virial theorem: -V/T =      2.001421
@    MULPOP   C_a     0.29; O_a    -0.29; 
 -----------------------------------------------------------------------------
   8  Screening settings (-IFTHRS, JTDIIS, DIFDEN, times)  -11    8    T  6.95D-02  6.90D-02
@  8  -112.782094309       1.17D-04  -2.69D-08     5   1   1   0
      Virial theorem: -V/T =      2.001423
@    MULPOP   C_a     0.29; O_a    -0.29; 
 -----------------------------------------------------------------------------
   9  Screening settings (-IFTHRS, JTDIIS, DIFDEN, times)  -11    9    T  7.19D-02  7.20D-02
@  9  -112.782094311       1.22D-05  -1.39D-09     5   1   1   0
      Virial theorem: -V/T =      2.001423
@    MULPOP   C_a     0.29; O_a    -0.29; 
 -----------------------------------------------------------------------------
  10  Screening settings (-IFTHRS, JTDIIS, DIFDEN, times)  -11   10    T  6.87D-02  6.80D-02
@ 10  -112.782094311       2.95D-06  -2.31D-11     5   1   1   0

@ *** DIIS converged in  10 iterations !
@     Converged SCF energy, gradient:   -112.782094310756    2.95D-06
    - total time used in SIRFCK :              0.00 seconds


 *** SCF orbital energy analysis ***

 Only the 20 lowest virtual orbital energies printed in each symmetry.

 Number of electrons :   14
 Orbital occupations :    5    1    1    0

 Sym       Hartree-Fock orbital energies

1 A1    -20.66711032   -11.36145537    -1.52299448    -0.80501607    -0.55500339
          0.06882131     0.08774029     0.18408511     0.26814006     0.29617692
          0.38141970     0.49845382     0.65953390     0.72480160     0.78490115
          0.98471105     1.04786562     1.19126432     1.25455808     1.27639366
          1.49923113     2.06405707     2.17658707     2.42655090     2.50887037

2 B1     -0.64050610     0.07028516     0.15392673     0.19818722     0.41420148
          0.50779310     0.84096500     1.07248930     1.08647989     1.21882956
          1.48846859     2.14337104     2.30933726     2.55695548     2.90182434
          3.42024150     3.62050229     3.93869924     5.13142988     6.46657755
          7.09406290

3 B2     -0.64050610     0.07028516     0.15392673     0.19818722     0.41420148
          0.50779310     0.84096500     1.07248930     1.08647989     1.21882956
          1.48846859     2.14337104     2.30933726     2.55695548     2.90182434
          3.42024150     3.62050229     3.93869924     5.13142988     6.46657755
          7.09406290

4 A2      0.29617692     0.72480160     1.04786562     1.27639366     2.17658707
          2.58284578     3.39328376     3.74530191     6.74886426     7.02232853
         41.37244703    43.85439096

    E(LUMO) :     0.06882131 au (symmetry 1)
  - E(HOMO) :    -0.55500339 au (symmetry 1)
  ------------------------------------------
    gap     :     0.62382470 au

 --- Writing SIRIFC interface file

 CPU and wall time for SCF :       0.844       0.849


                       .-----------------------------------.
                       | --- Final results from SIRIUS --- |
                       `-----------------------------------'


@    Spin multiplicity:           1
@    Spatial symmetry:            1 ( irrep  A1  in C2v )
@    Total charge of molecule:    0

@    Final HF energy:            -112.782094310756                 
@    Nuclear repulsion:            22.514071294559
@    Electronic energy:          -135.296165605315

@    Final gradient norm:           0.000002953303

 
     Date and time (Linux)  : Wed Jan 11 14:21:38 2023
     Host name              : cn023                                   

File label for MO orbitals:  11Jan23   FOCKDIIS

 (Only coefficients > 0.0100 are printed.)

 Molecular orbitals for symmetry species 1  (A1 )
 ------------------------------------------------

    Orbital         1        2        3        4        5        6        7
   1 C_a :1s    -0.0004   0.9980  -0.0470  -0.0128   0.0209  -0.0996  -0.0486
   2 C_a :1s    -0.0018  -0.0066   0.2893   0.5233   0.6929  -0.3602  -0.0615
   3 C_a :1s     0.0002   0.0038   0.0254   0.0087  -0.0209   0.0959   0.0730
   4 C_a :1s    -0.0016   0.0041  -0.1011  -0.0749   0.1362  -2.3760  -0.2450
   5 C_a :1s    -0.0003  -0.0012  -0.0151  -0.0051   0.0083  -0.0415  -0.0251
   7 C_a :1s    -0.0002   0.0002  -0.0053   0.0017   0.0316  -4.0180  -0.9714
   8 C_a :2pz    0.0008   0.0069   0.3283   0.1941  -0.7018  -0.0666  -0.1046
   9 C_a :2pz    0.0007  -0.0053  -0.0689  -0.0268   0.0632  -0.3439  -0.0566
  10 C_a :2pz   -0.0006  -0.0017  -0.1178  -0.0690   0.1323  -1.5809  -0.4800
  13 C_a :2pz    0.0001   0.0002  -0.0023  -0.0015   0.0001  -1.2478   1.3691
  16 C_a :3d0    0.0003   0.0010   0.0235   0.0147  -0.0194  -0.0129  -0.0026
  18 C_a :3d0    0.0016  -0.0003   0.0211   0.0138  -0.0135  -0.1811  -0.1064
  20 C_a :3d0    0.0000   0.0004  -0.0046  -0.0007   0.0047  -0.3299   0.1188
  22 C_a :4f0    0.0001   0.0003   0.0079   0.0073  -0.0032  -0.0142  -0.0099
  24 C_a :4f0    0.0008  -0.0000   0.0010  -0.0022   0.0042  -0.0363  -0.0118
  26 O_a :1s     0.9976  -0.0004  -0.0170  -0.0111   0.0008  -0.0061   0.0047
  27 O_a :1s    -0.0086   0.0012   0.7844  -0.5027  -0.0602   0.0658  -0.0170
  29 O_a :1s     0.0069   0.0013  -0.0475  -0.1296   0.0060   1.3931   0.3297
  32 O_a :1s     0.0012  -0.0015   0.0136  -0.0386   0.0077   5.2011   0.4074
  33 O_a :2pz   -0.0034  -0.0013  -0.2363  -0.7341   0.3774   0.0893   0.0390
  34 O_a :2pz    0.0034   0.0000   0.0030   0.0211  -0.0043  -0.0927  -0.0426
  35 O_a :2pz   -0.0021  -0.0013   0.0404   0.0852  -0.0231  -0.7914  -0.1423
  38 O_a :2pz   -0.0005   0.0004   0.0026   0.0011   0.0046  -0.9872  -0.7583
  41 O_a :3d0    0.0002   0.0002   0.0086   0.0103  -0.0060  -0.0024   0.0011
  43 O_a :3d0   -0.0001  -0.0003   0.0262   0.0209  -0.0159   0.0593   0.0057
  45 O_a :3d0    0.0012   0.0007   0.0049   0.0039   0.0005   0.1186   0.0325
  49 O_a :4f0   -0.0002   0.0004  -0.0062  -0.0041   0.0037  -0.0141   0.0026

    Orbital         8        9       10       11       12       13       14
   1 C_a :1s     0.1548   0.1273   0.0000   0.5729   0.1740  -0.3468   0.0000
   2 C_a :1s     0.8461   0.6298   0.0000   2.6550   0.4621  -1.0855  -0.0000
   3 C_a :1s    -0.0513  -0.1043  -0.0000  -0.4671   0.0583   0.0798  -0.0000
   4 C_a :1s     2.2286   5.4472   0.0000   3.6923  -5.1506  -7.6657  -0.0000
   5 C_a :1s     0.0568   0.0473   0.0000   0.2401   0.0619  -0.1274   0.0000
   6 C_a :1s     0.0131   0.0110   0.0000   0.0372   0.0177  -0.0342   0.0000
   7 C_a :1s    -0.0652   5.0575  -0.0000   1.7573  -3.3650  -1.7093  -0.0000
   8 C_a :2pz   -0.0322  -0.1638  -0.0000  -0.0944   0.3499  -0.0374  -0.0000
   9 C_a :2pz    0.2700   0.6804   0.0000   0.8329  -0.3028  -1.1890   0.0000
  10 C_a :2pz   -0.3058   3.2432   0.0000   1.1529  -6.3590  -1.7622   0.0000
  13 C_a :2pz   -1.0701   1.8238  -0.0000  -0.6051  -0.6352  -0.2337  -0.0000
  16 C_a :3d0    0.0173   0.0441  -0.0000   0.0222   0.0406  -0.0323  -0.0000
  17 C_a :3d2+  -0.0000   0.0000   0.0341  -0.0000   0.0000  -0.0000  -0.0194
  18 C_a :3d0   -0.0468   0.3856   0.0000   0.1800  -0.8125   0.0670  -0.0000
  19 C_a :3d2+  -0.0000  -0.0000  -0.0826  -0.0000   0.0000  -0.0000   0.0223
  20 C_a :3d0   -0.4507   1.2812  -0.0000  -1.5942  -2.2444  -0.2794  -0.0000
  21 C_a :3d2+   0.0000  -0.0000   1.1075   0.0000  -0.0000   0.0000   0.7326
  22 C_a :4f0    0.0037   0.0248  -0.0000   0.0451  -0.0329   0.0147  -0.0000
  23 C_a :4f2+  -0.0000   0.0000  -0.0089  -0.0000   0.0000  -0.0000  -0.0123
  24 C_a :4f0   -0.0836   0.1193   0.0000  -0.1789  -0.3986   0.1020  -0.0000
  25 C_a :4f2+   0.0000  -0.0000   0.0664  -0.0000  -0.0000   0.0000   0.1689
  26 O_a :1s     0.0650   0.0252  -0.0000   0.0304   0.0568  -0.2468  -0.0000
  27 O_a :1s     0.2452   0.3399   0.0000   0.1550   0.4434  -0.9162   0.0000
  28 O_a :1s    -0.0664   0.0012   0.0000   0.0035  -0.0322   0.2546   0.0000
  29 O_a :1s    -0.3689  -2.6622  -0.0000  -1.0376   5.1264   3.7974   0.0000
  30 O_a :1s     0.0281   0.0067  -0.0000   0.0088   0.0179  -0.1068  -0.0000
  31 O_a :1s     0.0040   0.0023  -0.0000   0.0036   0.0056  -0.0155  -0.0000
  32 O_a :1s    -1.4032  -9.8971   0.0000  -5.4084   5.5155   6.5215   0.0000
  33 O_a :2pz   -0.0737   0.0204  -0.0000   0.1799  -0.0216  -0.0301  -0.0000
  34 O_a :2pz    0.0030   0.1584   0.0000   0.1089  -0.3607  -0.0757   0.0000
  35 O_a :2pz    0.7349   1.6097   0.0000   2.3774  -0.1430  -2.8345   0.0000
  38 O_a :2pz    2.7365   0.6600   0.0000   2.5228   0.4642  -2.0335   0.0000
  41 O_a :3d0    0.0037   0.0070   0.0000   0.0054   0.0099   0.0119   0.0000
  42 O_a :3d2+  -0.0000  -0.0000   0.0011  -0.0000   0.0000  -0.0000  -0.0404
  43 O_a :3d0   -0.0078  -0.1192   0.0000  -0.1601   0.0329   0.1387  -0.0000
  44 O_a :3d2+   0.0000  -0.0000   0.0367   0.0000  -0.0000   0.0000   0.1008
  45 O_a :3d0   -0.4620  -0.1251  -0.0000  -0.7059  -0.6264   1.6803  -0.0000
  46 O_a :3d2+  -0.0000   0.0000  -0.1317  -0.0000   0.0000  -0.0000  -1.4242
  47 O_a :4f0   -0.0039   0.0072   0.0000   0.0069  -0.0121   0.0054   0.0000
  48 O_a :4f2+  -0.0000   0.0000  -0.0040   0.0000  -0.0000   0.0000  -0.0116
  49 O_a :4f0    0.0536   0.0230  -0.0000   0.0859   0.1034  -0.1814   0.0000
  50 O_a :4f2+  -0.0000  -0.0000   0.0060  -0.0000   0.0000  -0.0000   0.0824

    Orbital        15
   1 C_a :1s    -0.4344
   2 C_a :1s    -1.8406
   3 C_a :1s     0.4051
   4 C_a :1s     5.4240
   5 C_a :1s    -0.2031
   6 C_a :1s    -0.0194
   7 C_a :1s     1.8021
   8 C_a :2pz    0.6774
   9 C_a :2pz    0.5515
  10 C_a :2pz    2.2425
  13 C_a :2pz    0.9082
  18 C_a :3d0   -0.0956
  20 C_a :3d0    1.0939
  24 C_a :4f0    0.0970
  26 O_a :1s    -0.0501
  27 O_a :1s    -0.5258
  28 O_a :1s     0.0579
  29 O_a :1s    -2.1760
  30 O_a :1s    -0.0204
  32 O_a :1s    -4.3426
  33 O_a :2pz    0.2411
  34 O_a :2pz    0.0727
  35 O_a :2pz    0.9617
  38 O_a :2pz   -0.2556
  41 O_a :3d0    0.0320
  43 O_a :3d0   -0.0868
  45 O_a :3d0    0.8620
  47 O_a :4f0    0.0131
  49 O_a :4f0   -0.0326

 Molecular orbitals for symmetry species 2  (B1 )
 ------------------------------------------------

    Orbital         1        2        3        4        5        6        7
   1 C_a :2px   -0.4417  -0.1589   0.6442  -0.2072  -0.1623   0.7542   0.2736
   2 C_a :2px    0.0248  -0.0201   0.0689   0.1656  -0.3574  -0.3977   0.7185
   3 C_a :2px    0.0842  -0.0404   0.9628   1.0933  -1.9615  -3.9783   0.5360
   6 C_a :2px    0.0016  -1.4650  -0.3342   1.7540  -1.0673  -0.0274   0.6123
   8 C_a :3d1+  -0.0275   0.0060  -0.0125   0.0086  -0.0100   0.0270  -0.0221
   9 C_a :3d1+  -0.0379   0.0517   0.1398   0.2162  -0.3081  -0.9512   0.0122
  10 C_a :3d1+   0.0011  -0.1329   0.0060   0.8354  -2.3201  -1.0641   0.3691
  11 C_a :4f1+  -0.0084   0.0078   0.0062   0.0021   0.0114  -0.0457  -0.0234
  13 C_a :4f1+  -0.0047   0.0032   0.0382   0.1235  -0.2855  -0.3614   0.0054
  15 O_a :2px   -0.7908   0.2271  -0.3274   0.3188   0.2947  -0.0481  -0.3175
  16 O_a :2px   -0.0081  -0.0013  -0.0236  -0.0231  -0.0561   0.0676  -0.1596
  17 O_a :2px    0.0113   0.0232  -0.4327  -0.5036   1.8128   2.3163   0.1322
  20 O_a :2px   -0.0159   0.7271  -0.6642  -2.9612   2.1073   1.5715  -1.2661
  22 O_a :3d1+   0.0113  -0.0002  -0.0095   0.0002   0.0111  -0.0001   0.0334
  23 O_a :3d1+   0.0313   0.0134   0.0043   0.0016  -0.0603  -0.1772  -0.1031
  24 O_a :3d1+   0.0105  -0.0024   0.1777   0.4426  -0.4847  -1.3555   1.5011
  25 O_a :4f1+  -0.0061  -0.0001   0.0051   0.0067  -0.0040  -0.0099   0.0158
  27 O_a :4f1+  -0.0038  -0.0042  -0.0314  -0.0495   0.0575   0.1993  -0.0927

    Orbital         8        9       10       11
   1 C_a :2px   -0.0000  -0.0350  -0.2803  -0.6125
   2 C_a :2px    0.0000  -1.2457  -1.5221  -0.5803
   3 C_a :2px    0.0000  -3.2355  -2.2575  -2.6119
   4 C_a :2px   -0.0000  -0.0137  -0.0098   0.0031
   6 C_a :2px    0.0000  -0.3768   0.1385  -0.0902
   8 C_a :3d1+   0.0000   0.0096  -0.0502  -0.0083
   9 C_a :3d1+  -0.0000  -0.8513  -2.0582  -2.1499
  10 C_a :3d1+   0.0000  -1.8963  -0.2795  -0.9261
  11 C_a :4f1+   0.0000  -0.0086  -0.2134   0.0195
  12 C_a :4f3+   0.1318   0.0000   0.0000  -0.0000
  13 C_a :4f1+  -0.0000  -1.0144   0.4071  -1.5781
  14 C_a :4f3+  -1.0706  -0.0000   0.0000   0.0000
  15 O_a :2px    0.0000  -0.5204  -0.1225   0.2931
  16 O_a :2px   -0.0000  -0.2445  -0.1062   0.5679
  17 O_a :2px   -0.0000   4.8174   3.4403   3.2766
  18 O_a :2px    0.0000  -0.0052  -0.0017   0.0114
  20 O_a :2px   -0.0000   1.2245   0.4183   0.8529
  22 O_a :3d1+  -0.0000   0.0231   0.0268   0.0440
  23 O_a :3d1+   0.0000  -0.2458  -0.2154  -0.1155
  24 O_a :3d1+   0.0000  -1.6205  -2.2932  -1.3025
  25 O_a :4f1+   0.0000  -0.0149  -0.0129  -0.0300
  27 O_a :4f1+   0.0000   0.1849   0.3981   0.2127
  28 O_a :4f3+   0.0101  -0.0000  -0.0000  -0.0000

 Molecular orbitals for symmetry species 3  (B2 )
 ------------------------------------------------

    Orbital         1        2        3        4        5        6        7
   1 C_a :2py   -0.4417  -0.1589   0.6442  -0.2072  -0.1623   0.7542   0.2736
   2 C_a :2py    0.0248  -0.0201   0.0689   0.1656  -0.3574  -0.3977   0.7185
   3 C_a :2py    0.0842  -0.0404   0.9628   1.0933  -1.9615  -3.9783   0.5360
   6 C_a :2py    0.0016  -1.4650  -0.3342   1.7540  -1.0673  -0.0274   0.6123
   8 C_a :3d1-  -0.0275   0.0060  -0.0125   0.0086  -0.0100   0.0270  -0.0221
   9 C_a :3d1-  -0.0379   0.0517   0.1398   0.2162  -0.3081  -0.9512   0.0122
  10 C_a :3d1-   0.0011  -0.1329   0.0060   0.8354  -2.3201  -1.0641   0.3691
  12 C_a :4f1-  -0.0084   0.0078   0.0062   0.0021   0.0114  -0.0457  -0.0234
  14 C_a :4f1-  -0.0047   0.0032   0.0382   0.1235  -0.2855  -0.3614   0.0054
  15 O_a :2py   -0.7908   0.2271  -0.3274   0.3188   0.2947  -0.0481  -0.3175
  16 O_a :2py   -0.0081  -0.0013  -0.0236  -0.0231  -0.0561   0.0676  -0.1596
  17 O_a :2py    0.0113   0.0232  -0.4327  -0.5036   1.8128   2.3163   0.1322
  20 O_a :2py   -0.0159   0.7271  -0.6642  -2.9612   2.1073   1.5715  -1.2661
  22 O_a :3d1-   0.0113  -0.0002  -0.0095   0.0002   0.0111  -0.0001   0.0334
  23 O_a :3d1-   0.0313   0.0134   0.0043   0.0016  -0.0603  -0.1772  -0.1031
  24 O_a :3d1-   0.0105  -0.0024   0.1777   0.4426  -0.4847  -1.3555   1.5011
  26 O_a :4f1-  -0.0061  -0.0001   0.0051   0.0067  -0.0040  -0.0099   0.0158
  28 O_a :4f1-  -0.0038  -0.0042  -0.0314  -0.0495   0.0575   0.1993  -0.0927

    Orbital         8        9       10       11
   1 C_a :2py    0.0000  -0.0350  -0.2803  -0.6125
   2 C_a :2py   -0.0000  -1.2457  -1.5221  -0.5803
   3 C_a :2py   -0.0000  -3.2355  -2.2575  -2.6119
   4 C_a :2py    0.0000  -0.0137  -0.0098   0.0031
   6 C_a :2py   -0.0000  -0.3768   0.1385  -0.0902
   8 C_a :3d1-  -0.0000   0.0096  -0.0502  -0.0083
   9 C_a :3d1-   0.0000  -0.8513  -2.0582  -2.1499
  10 C_a :3d1-  -0.0000  -1.8963  -0.2795  -0.9261
  11 C_a :4f3-   0.1318  -0.0000  -0.0000   0.0000
  12 C_a :4f1-  -0.0000  -0.0086  -0.2134   0.0195
  13 C_a :4f3-  -1.0706   0.0000  -0.0000  -0.0000
  14 C_a :4f1-   0.0000  -1.0144   0.4071  -1.5781
  15 O_a :2py   -0.0000  -0.5204  -0.1225   0.2931
  16 O_a :2py    0.0000  -0.2445  -0.1062   0.5679
  17 O_a :2py    0.0000   4.8174   3.4403   3.2766
  18 O_a :2py   -0.0000  -0.0052  -0.0017   0.0114
  20 O_a :2py    0.0000   1.2245   0.4183   0.8529
  22 O_a :3d1-   0.0000   0.0231   0.0268   0.0440
  23 O_a :3d1-  -0.0000  -0.2458  -0.2154  -0.1155
  24 O_a :3d1-  -0.0000  -1.6205  -2.2932  -1.3025
  26 O_a :4f1-  -0.0000  -0.0149  -0.0129  -0.0300
  27 O_a :4f3-   0.0101   0.0000   0.0000   0.0000
  28 O_a :4f1-  -0.0000   0.1849   0.3981   0.2127

 Molecular orbitals for symmetry species 4  (A2 )
 ------------------------------------------------

    Orbital         1        2        3        4        5        6        7
   2 C_a :3d2-   0.0341  -0.0194   0.0182   0.0123   0.0389   0.0933   1.1987
   3 C_a :3d2-  -0.0826   0.0223  -1.1874  -0.7682  -0.0954  -1.3524  -0.7745
   4 C_a :3d2-   1.1075   0.7326   0.4843  -0.3869   0.2700  -0.1326   0.2479
   5 C_a :4f2-  -0.0089  -0.0123  -0.0532   0.1021   0.1296  -0.0096  -0.2178
   6 C_a :4f2-   0.0664   0.1689   0.2892  -1.5933  -0.1472  -1.0243   0.0787
   8 O_a :3d2-   0.0011  -0.0404   0.0023  -0.0102   0.0021  -0.0023  -0.0052
   9 O_a :3d2-   0.0367   0.1008  -0.0625  -0.0263   1.2326   0.3277   0.0102
  10 O_a :3d2-  -0.1317  -1.4242   0.2522   1.4618  -0.7571   1.1094   0.0463
  11 O_a :4f2-  -0.0040  -0.0116   0.0008   0.0376  -0.0381   0.1309  -0.0464
  12 O_a :4f2-   0.0060   0.0824  -0.0078  -0.2030   0.2522  -1.5944   0.0876

    Orbital         8        9       10
   2 C_a :3d2-  -0.2382  -0.1054   0.0276
   3 C_a :3d2-  -0.2778   0.5039   0.1391
   4 C_a :3d2-   0.1029   0.1026  -0.1108
   5 C_a :4f2-  -1.3366  -0.2009   0.1085
   6 C_a :4f2-   0.3853   0.4636   0.0668
   7 O_a :3d2-   0.0021   0.0001   0.0114
   8 O_a :3d2-   0.0002   0.0303   1.2147
   9 O_a :3d2-   0.5395  -0.0272  -0.9186
  10 O_a :3d2-  -0.1480  -0.5115   0.2950
  11 O_a :4f2-   0.0748  -1.2732   0.0167
  12 O_a :4f2-  -0.6341   0.8607   0.1078

  Total CPU  time used in SIRIUS :   0.87 seconds
  Total wall time used in SIRIUS :   0.87 seconds

 
     Date and time (Linux)  : Wed Jan 11 14:21:38 2023
     Host name              : cn023                                   


                     .---------------------------------------.
                     | End of Wave Function Section (SIRIUS) |
                     `---------------------------------------'



                 .------------------------------------------------.
                 | Starting in Dynamic Property Section (RESPONS) |
                 `------------------------------------------------'


 ----------------------------------------------------------------------------------------
  RESPONSE  -  an MCSCF, MC-srDFT, DFT, SOPPA and SOPPA-srDFT response property program
 ----------------------------------------------------------------------------------------


 -------- OUTPUT FROM RESPONSE INPUT PROCESSING --------




 Linear Response calculation
 ---------------------------

 Print level                                    : IPRLR  =   2
 Maximum number of iterations                   : MAXITL =  60
 Threshold for relative convergence             : THCLR  = 1.000D-03
 Maximum iterations in optimal orbital algorithm: MAXITO =   5

  9 B-frequencies  0.000000D+00  2.015931D-02  4.031862D-02  6.047794D-02  8.063725D-02
  1.007966D-01  1.209559D-01  1.411152D-01  1.612745D-01

    1 second order properties calculated with symmetry no.    1 and labels:

          ZDIPLEN 

    1 second order properties calculated with symmetry no.    2 and labels:

          XDIPLEN 

    1 second order properties calculated with symmetry no.    3 and labels:

          YDIPLEN 


   SCF energy         :     -112.782094310755980
 -- inactive part     :     -135.296165605315082
 -- nuclear repulsion :       22.514071294559098


                     ***************************************
                     *** RHF response calculation (TDHF) ***
                     ***************************************

 ----------------------------------------------------------------
 ----- Linear response calculation
 ----- Symmetry of excitation/property operator(s)    1  ( A1 )
 ----------------------------------------------------------------

 Number of excitations of this symmetry            0
 Number of response properties of this symmetry    1
 Number of C6/C8 properties of this symmetry       0


 Perturbation symmetry.     KSYMOP:           1
 Perturbation spin symmetry.TRPLET:           F
 Orbital variables.         KZWOPT:         279
 Configuration variables.   KZCONF:           0
 Total number of variables. KZVAR :         279


 RSPLR -- linear response calculation for symmetry 1  ( A1 )
 RSPLR -- operator label : ZDIPLEN 
 RSPLR -- operator spin  :   0
 RSPLR -- frequencies    :     0.000000  0.020159  0.040319  0.060478  0.080637
                               0.100797  0.120956  0.141115  0.161274



 ---  SOLVING SETS OF LINEAR EQUATIONS FOR LINEAR RESPONSE PROPERTIES ---

 Operator symmetry = 1  ( A1 ); triplet =   F


 ** RSPCTL MICROITERATION NUMBER    1

       No.  Residual tot.,    conf., and orb.    Bnorm      Frequency 
      ----------------------------------------------------------------
         1    2.90350D+00  0.00D+00  2.90D+00  2.63D+00    0.00000D+00
         2    2.90630D+00  0.00D+00  2.91D+00  2.64D+00    2.01593D-02
         3    2.91474D+00  0.00D+00  2.91D+00  2.65D+00    4.03186D-02
         4    2.92894D+00  0.00D+00  2.93D+00  2.68D+00    6.04779D-02
         5    2.94910D+00  0.00D+00  2.95D+00  2.72D+00    8.06372D-02
         6    2.97551D+00  0.00D+00  2.98D+00  2.77D+00    1.00797D-01
         7    3.00860D+00  0.00D+00  3.01D+00  2.84D+00    1.20956D-01
         8    3.04887D+00  0.00D+00  3.05D+00  2.92D+00    1.41115D-01
         9    3.09702D+00  0.00D+00  3.10D+00  3.01D+00    1.61274D-01

 ** RSPCTL MICROITERATION NUMBER    2

       No.  Residual tot.,    conf., and orb.    Bnorm      Frequency 
      ----------------------------------------------------------------
         1    5.66406D-01  0.00D+00  5.66D-01  3.14D+00    0.00000D+00
         2    5.67322D-01  0.00D+00  5.67D-01  3.15D+00    2.01593D-02
         3    5.70090D-01  0.00D+00  5.70D-01  3.17D+00    4.03186D-02
         4    5.74763D-01  0.00D+00  5.75D-01  3.20D+00    6.04779D-02
         5    5.81435D-01  0.00D+00  5.81D-01  3.26D+00    8.06372D-02
         6    5.90245D-01  0.00D+00  5.90D-01  3.32D+00    1.00797D-01
         7    6.01384D-01  0.00D+00  6.01D-01  3.41D+00    1.20956D-01
         8    6.15106D-01  0.00D+00  6.15D-01  3.51D+00    1.41115D-01
         9    6.31747D-01  0.00D+00  6.32D-01  3.64D+00    1.61274D-01

 ** RSPCTL MICROITERATION NUMBER    3

       No.  Residual tot.,    conf., and orb.    Bnorm      Frequency 
      ----------------------------------------------------------------
         1    7.83905D-02  0.00D+00  7.84D-02  3.16D+00    0.00000D+00
         2    7.85840D-02  0.00D+00  7.86D-02  3.17D+00    2.01593D-02
         3    7.91690D-02  0.00D+00  7.92D-02  3.19D+00    4.03186D-02
         4    8.01601D-02  0.00D+00  8.02D-02  3.23D+00    6.04779D-02
         5    8.15821D-02  0.00D+00  8.16D-02  3.28D+00    8.06372D-02
         6    8.34720D-02  0.00D+00  8.35D-02  3.35D+00    1.00797D-01
         7    8.58808D-02  0.00D+00  8.59D-02  3.44D+00    1.20956D-01
         8    8.88773D-02  0.00D+00  8.89D-02  3.54D+00    1.41115D-01
         9    9.25522D-02  0.00D+00  9.26D-02  3.67D+00    1.61274D-01

 ** RSPCTL MICROITERATION NUMBER    4

       No.  Residual tot.,    conf., and orb.    Bnorm      Frequency 
      ----------------------------------------------------------------
         1    7.54074D-03  0.00D+00  7.54D-03  3.16D+00    0.00000D+00
         2    7.57086D-03  0.00D+00  7.57D-03  3.17D+00    2.01593D-02
         3    7.66241D-03  0.00D+00  7.66D-03  3.19D+00    4.03186D-02
         4    7.81902D-03  0.00D+00  7.82D-03  3.23D+00    6.04779D-02
         5    8.04701D-03  0.00D+00  8.05D-03  3.28D+00    8.06372D-02
         6    8.35594D-03  0.00D+00  8.36D-03  3.35D+00    1.00797D-01
         7    8.75930D-03  0.00D+00  8.76D-03  3.44D+00    1.20956D-01
         8    9.27571D-03  0.00D+00  9.28D-03  3.54D+00    1.41115D-01
         9    9.93060D-03  0.00D+00  9.93D-03  3.67D+00    1.61274D-01

 ** RSPCTL MICROITERATION NUMBER    5

       No.  Residual tot.,    conf., and orb.    Bnorm      Frequency 
      ----------------------------------------------------------------
         1    6.58822D-04  0.00D+00  6.59D-04  3.16D+00    0.00000D+00
         2    6.61907D-04  0.00D+00  6.62D-04  3.17D+00    2.01593D-02
         3    6.71290D-04  0.00D+00  6.71D-04  3.19D+00    4.03186D-02
         4    6.87354D-04  0.00D+00  6.87D-04  3.23D+00    6.04779D-02
         5    7.10775D-04  0.00D+00  7.11D-04  3.28D+00    8.06372D-02
         6    7.42567D-04  0.00D+00  7.43D-04  3.35D+00    1.00797D-01
         7    7.84169D-04  0.00D+00  7.84D-04  3.44D+00    1.20956D-01
         8    8.37571D-04  0.00D+00  8.38D-04  3.54D+00    1.41115D-01
         9    9.05497D-04  0.00D+00  9.05D-04  3.67D+00    1.61274D-01

 *** THE REQUESTED    9 SOLUTION VECTORS CONVERGED

 Convergence of RSP solution vectors, threshold = 1.00D-03
 ---------------------------------------------------------------
 (dimension of paired reduced space:   90)
 RSP solution vector no.    1; norm of residual   2.08D-04
 RSP solution vector no.    2; norm of residual   2.09D-04
 RSP solution vector no.    3; norm of residual   2.10D-04
 RSP solution vector no.    4; norm of residual   2.13D-04
 RSP solution vector no.    5; norm of residual   2.17D-04
 RSP solution vector no.    6; norm of residual   2.22D-04
 RSP solution vector no.    7; norm of residual   2.28D-04
 RSP solution vector no.    8; norm of residual   2.36D-04
 RSP solution vector no.    9; norm of residual   2.47D-04

 *** RSPCTL MICROITERATIONS CONVERGED


           Final output of second order properties from linear response
           ------------------------------------------------------------


@ Spin symmetry of operators: singlet

 Note that minus the linear response function: - << A; B >>(omega) is printed.
 The results are of quadratic accuracy using Sellers formula.

@ FREQUENCY INDEPENDENT SECOND ORDER PROPERTIES

@ -<< ZDIPLEN  ; ZDIPLEN  >> =  1.448522475467E+01

@ FREQUENCY DEPENDENT SECOND ORDER PROPERTIES WITH FREQUENCY :

@    a.u.:  2.0159312D-02
@    cm-1:  4.4244576D+03
@    eV  :  5.4856280D-01
@  kJ/mol:  5.2928267D+01
@    nm  :  2.2601640D+03

@ -<< ZDIPLEN  ; ZDIPLEN  >> =  1.450198825645E+01

@ FREQUENCY DEPENDENT SECOND ORDER PROPERTIES WITH FREQUENCY :

@    a.u.:  4.0318625D-02
@    cm-1:  8.8489153D+03
@    eV  :  1.0971256D+00
@  kJ/mol:  1.0585653D+02
@    nm  :  1.1300820D+03

@ -<< ZDIPLEN  ; ZDIPLEN  >> =  1.455256954306E+01

@ FREQUENCY DEPENDENT SECOND ORDER PROPERTIES WITH FREQUENCY :

@    a.u.:  6.0477937D-02
@    cm-1:  1.3273373D+04
@    eV  :  1.6456884D+00
@  kJ/mol:  1.5878480D+02
@    nm  :  7.5338801D+02

@ -<< ZDIPLEN  ; ZDIPLEN  >> =  1.463785501258E+01

@ FREQUENCY DEPENDENT SECOND ORDER PROPERTIES WITH FREQUENCY :

@    a.u.:  8.0637250D-02
@    cm-1:  1.7697831D+04
@    eV  :  2.1942512D+00
@  kJ/mol:  2.1171307D+02
@    nm  :  5.6504101D+02

@ -<< ZDIPLEN  ; ZDIPLEN  >> =  1.475937020926E+01

@ FREQUENCY DEPENDENT SECOND ORDER PROPERTIES WITH FREQUENCY :

@    a.u.:  1.0079656D-01
@    cm-1:  2.2122288D+04
@    eV  :  2.7428140D+00
@  kJ/mol:  2.6464133D+02
@    nm  :  4.5203281D+02

@ -<< ZDIPLEN  ; ZDIPLEN  >> =  1.491935715358E+01

@ FREQUENCY DEPENDENT SECOND ORDER PROPERTIES WITH FREQUENCY :

@    a.u.:  1.2095587D-01
@    cm-1:  2.6546746D+04
@    eV  :  3.2913768D+00
@  kJ/mol:  3.1756960D+02
@    nm  :  3.7669400D+02

@ -<< ZDIPLEN  ; ZDIPLEN  >> =  1.512089349844E+01

@ FREQUENCY DEPENDENT SECOND ORDER PROPERTIES WITH FREQUENCY :

@    a.u.:  1.4111519D-01
@    cm-1:  3.0971203D+04
@    eV  :  3.8399396D+00
@  kJ/mol:  3.7049787D+02
@    nm  :  3.2288058D+02

@ -<< ZDIPLEN  ; ZDIPLEN  >> =  1.536806668501E+01

@ FREQUENCY DEPENDENT SECOND ORDER PROPERTIES WITH FREQUENCY :

@    a.u.:  1.6127450D-01
@    cm-1:  3.5395661D+04
@    eV  :  4.3885024D+00
@  kJ/mol:  4.2342613D+02
@    nm  :  2.8252050D+02

@ -<< ZDIPLEN  ; ZDIPLEN  >> =  1.566622399342E+01


 Time used in linear response calculation is      1.10 CPU seconds for symmetry 1
 ----------------------------------------------------------------
 ----- Linear response calculation
 ----- Symmetry of excitation/property operator(s)    2  ( B1 )
 ----------------------------------------------------------------

 Number of excitations of this symmetry            0
 Number of response properties of this symmetry    1
 Number of C6/C8 properties of this symmetry       0


 Perturbation symmetry.     KSYMOP:           2
 Perturbation spin symmetry.TRPLET:           F
 Orbital variables.         KZWOPT:         192
 Configuration variables.   KZCONF:           0
 Total number of variables. KZVAR :         192


 RSPLR -- linear response calculation for symmetry 2  ( B1 )
 RSPLR -- operator label : XDIPLEN 
 RSPLR -- operator spin  :   0
 RSPLR -- frequencies    :     0.000000  0.020159  0.040319  0.060478  0.080637
                               0.100797  0.120956  0.141115  0.161274



 ---  SOLVING SETS OF LINEAR EQUATIONS FOR LINEAR RESPONSE PROPERTIES ---

 Operator symmetry = 2  ( B1 ); triplet =   F

RSPORT:    1 out of    9 new trial vectors linear dependent

 ** RSPCTL MICROITERATION NUMBER    1

       No.  Residual tot.,    conf., and orb.    Bnorm      Frequency 
      ----------------------------------------------------------------
         1    9.46822D-01  0.00D+00  9.47D-01  2.78D+00    0.00000D+00
         2    9.49037D-01  0.00D+00  9.49D-01  2.79D+00    2.01593D-02
         3    9.55780D-01  0.00D+00  9.56D-01  2.81D+00    4.03186D-02
         4    9.67354D-01  0.00D+00  9.67D-01  2.86D+00    6.04779D-02
         5    9.84301D-01  0.00D+00  9.84D-01  2.93D+00    8.06372D-02
         6    1.00746D+00  0.00D+00  1.01D+00  3.02D+00    1.00797D-01
         7    1.03807D+00  0.00D+00  1.04D+00  3.15D+00    1.20956D-01
         8    1.07793D+00  0.00D+00  1.08D+00  3.30D+00    1.41115D-01
         9    1.12966D+00  0.00D+00  1.13D+00  3.50D+00    1.61274D-01

 ** RSPCTL MICROITERATION NUMBER    2

       No.  Residual tot.,    conf., and orb.    Bnorm      Frequency 
      ----------------------------------------------------------------
         1    1.29090D-01  0.00D+00  1.29D-01  2.84D+00    0.00000D+00
         2    1.29636D-01  0.00D+00  1.30D-01  2.86D+00    2.01593D-02
         3    1.31309D-01  0.00D+00  1.31D-01  2.89D+00    4.03186D-02
         4    1.34220D-01  0.00D+00  1.34D-01  2.94D+00    6.04779D-02
         5    1.38573D-01  0.00D+00  1.39D-01  3.02D+00    8.06372D-02
         6    1.44695D-01  0.00D+00  1.45D-01  3.13D+00    1.00797D-01
         7    1.53091D-01  0.00D+00  1.53D-01  3.28D+00    1.20956D-01
         8    1.64537D-01  0.00D+00  1.65D-01  3.47D+00    1.41115D-01
         9    1.80257D-01  0.00D+00  1.80D-01  3.72D+00    1.61274D-01

 ** RSPCTL MICROITERATION NUMBER    3

       No.  Residual tot.,    conf., and orb.    Bnorm      Frequency 
      ----------------------------------------------------------------
         1    1.40009D-02  0.00D+00  1.40D-02  2.85D+00    0.00000D+00
         2    1.40722D-02  0.00D+00  1.41D-02  2.86D+00    2.01593D-02
         3    1.42897D-02  0.00D+00  1.43D-02  2.89D+00    4.03186D-02
         4    1.46650D-02  0.00D+00  1.47D-02  2.94D+00    6.04779D-02
         5    1.52188D-02  0.00D+00  1.52D-02  3.02D+00    8.06372D-02
         6    1.59843D-02  0.00D+00  1.60D-02  3.13D+00    1.00797D-01
         7    1.70116D-02  0.00D+00  1.70D-02  3.28D+00    1.20956D-01
         8    1.83776D-02  0.00D+00  1.84D-02  3.47D+00    1.41115D-01
         9    2.02012D-02  0.00D+00  2.02D-02  3.72D+00    1.61274D-01

 ** RSPCTL MICROITERATION NUMBER    4

       No.  Residual tot.,    conf., and orb.    Bnorm      Frequency 
      ----------------------------------------------------------------
         1    1.34356D-03  0.00D+00  1.34D-03  2.85D+00    0.00000D+00
         2    1.35348D-03  0.00D+00  1.35D-03  2.86D+00    2.01593D-02
         3    1.38378D-03  0.00D+00  1.38D-03  2.89D+00    4.03186D-02
         4    1.43608D-03  0.00D+00  1.44D-03  2.94D+00    6.04779D-02
         5    1.51331D-03  0.00D+00  1.51D-03  3.02D+00    8.06372D-02
         6    1.62012D-03  0.00D+00  1.62D-03  3.13D+00    1.00797D-01
         7    1.76354D-03  0.00D+00  1.76D-03  3.28D+00    1.20956D-01
         8    1.95427D-03  0.00D+00  1.95D-03  3.47D+00    1.41115D-01
         9    2.20886D-03  0.00D+00  2.21D-03  3.72D+00    1.61274D-01

 *** THE REQUESTED    9 SOLUTION VECTORS CONVERGED

 Convergence of RSP solution vectors, threshold = 1.00D-03
 ---------------------------------------------------------------
 (dimension of paired reduced space:   70)
 RSP solution vector no.    1; norm of residual   4.72D-04
 RSP solution vector no.    2; norm of residual   4.74D-04
 RSP solution vector no.    3; norm of residual   4.79D-04
 RSP solution vector no.    4; norm of residual   4.88D-04
 RSP solution vector no.    5; norm of residual   5.00D-04
 RSP solution vector no.    6; norm of residual   5.17D-04
 RSP solution vector no.    7; norm of residual   5.38D-04
 RSP solution vector no.    8; norm of residual   5.63D-04
 RSP solution vector no.    9; norm of residual   5.93D-04

 *** RSPCTL MICROITERATIONS CONVERGED


           Final output of second order properties from linear response
           ------------------------------------------------------------


@ Spin symmetry of operators: singlet

 Note that minus the linear response function: - << A; B >>(omega) is printed.
 The results are of quadratic accuracy using Sellers formula.

@ FREQUENCY INDEPENDENT SECOND ORDER PROPERTIES

@ -<< XDIPLEN  ; XDIPLEN  >> =  1.122780627243E+01

@ FREQUENCY DEPENDENT SECOND ORDER PROPERTIES WITH FREQUENCY :

@    a.u.:  2.0159312D-02
@    cm-1:  4.4244576D+03
@    eV  :  5.4856280D-01
@  kJ/mol:  5.2928267D+01
@    nm  :  2.2601640D+03

@ -<< XDIPLEN  ; XDIPLEN  >> =  1.124471794676E+01

@ FREQUENCY DEPENDENT SECOND ORDER PROPERTIES WITH FREQUENCY :

@    a.u.:  4.0318625D-02
@    cm-1:  8.8489153D+03
@    eV  :  1.0971256D+00
@  kJ/mol:  1.0585653D+02
@    nm  :  1.1300820D+03

@ -<< XDIPLEN  ; XDIPLEN  >> =  1.129601093652E+01

@ FREQUENCY DEPENDENT SECOND ORDER PROPERTIES WITH FREQUENCY :

@    a.u.:  6.0477937D-02
@    cm-1:  1.3273373D+04
@    eV  :  1.6456884D+00
@  kJ/mol:  1.5878480D+02
@    nm  :  7.5338801D+02

@ -<< XDIPLEN  ; XDIPLEN  >> =  1.138341879566E+01

@ FREQUENCY DEPENDENT SECOND ORDER PROPERTIES WITH FREQUENCY :

@    a.u.:  8.0637250D-02
@    cm-1:  1.7697831D+04
@    eV  :  2.1942512D+00
@  kJ/mol:  2.1171307D+02
@    nm  :  5.6504101D+02

@ -<< XDIPLEN  ; XDIPLEN  >> =  1.151004293664E+01

@ FREQUENCY DEPENDENT SECOND ORDER PROPERTIES WITH FREQUENCY :

@    a.u.:  1.0079656D-01
@    cm-1:  2.2122288D+04
@    eV  :  2.7428140D+00
@  kJ/mol:  2.6464133D+02
@    nm  :  4.5203281D+02

@ -<< XDIPLEN  ; XDIPLEN  >> =  1.168072255302E+01

@ FREQUENCY DEPENDENT SECOND ORDER PROPERTIES WITH FREQUENCY :

@    a.u.:  1.2095587D-01
@    cm-1:  2.6546746D+04
@    eV  :  3.2913768D+00
@  kJ/mol:  3.1756960D+02
@    nm  :  3.7669400D+02

@ -<< XDIPLEN  ; XDIPLEN  >> =  1.190267729575E+01

@ FREQUENCY DEPENDENT SECOND ORDER PROPERTIES WITH FREQUENCY :

@    a.u.:  1.4111519D-01
@    cm-1:  3.0971203D+04
@    eV  :  3.8399396D+00
@  kJ/mol:  3.7049787D+02
@    nm  :  3.2288058D+02

@ -<< XDIPLEN  ; XDIPLEN  >> =  1.218661125978E+01

@ FREQUENCY DEPENDENT SECOND ORDER PROPERTIES WITH FREQUENCY :

@    a.u.:  1.6127450D-01
@    cm-1:  3.5395661D+04
@    eV  :  4.3885024D+00
@  kJ/mol:  4.2342613D+02
@    nm  :  2.8252050D+02

@ -<< XDIPLEN  ; XDIPLEN  >> =  1.254866059390E+01


 Time used in linear response calculation is      0.88 CPU seconds for symmetry 2
 ----------------------------------------------------------------
 ----- Linear response calculation
 ----- Symmetry of excitation/property operator(s)    3  ( B2 )
 ----------------------------------------------------------------

 Number of excitations of this symmetry            0
 Number of response properties of this symmetry    1
 Number of C6/C8 properties of this symmetry       0


 Perturbation symmetry.     KSYMOP:           3
 Perturbation spin symmetry.TRPLET:           F
 Orbital variables.         KZWOPT:         192
 Configuration variables.   KZCONF:           0
 Total number of variables. KZVAR :         192


 RSPLR -- linear response calculation for symmetry 3  ( B2 )
 RSPLR -- operator label : YDIPLEN 
 RSPLR -- operator spin  :   0
 RSPLR -- frequencies    :     0.000000  0.020159  0.040319  0.060478  0.080637
                               0.100797  0.120956  0.141115  0.161274



 ---  SOLVING SETS OF LINEAR EQUATIONS FOR LINEAR RESPONSE PROPERTIES ---

 Operator symmetry = 3  ( B2 ); triplet =   F

RSPORT:    1 out of    9 new trial vectors linear dependent

 ** RSPCTL MICROITERATION NUMBER    1

       No.  Residual tot.,    conf., and orb.    Bnorm      Frequency 
      ----------------------------------------------------------------
         1    9.52616D-01  0.00D+00  9.53D-01  2.77D+00    0.00000D+00
         2    9.54854D-01  0.00D+00  9.55D-01  2.78D+00    2.01593D-02
         3    9.61671D-01  0.00D+00  9.62D-01  2.81D+00    4.03186D-02
         4    9.73376D-01  0.00D+00  9.73D-01  2.86D+00    6.04779D-02
         5    9.90523D-01  0.00D+00  9.91D-01  2.93D+00    8.06372D-02
         6    1.01397D+00  0.00D+00  1.01D+00  3.02D+00    1.00797D-01
         7    1.04498D+00  0.00D+00  1.04D+00  3.14D+00    1.20956D-01
         8    1.08541D+00  0.00D+00  1.09D+00  3.30D+00    1.41115D-01
         9    1.13793D+00  0.00D+00  1.14D+00  3.50D+00    1.61274D-01

 ** RSPCTL MICROITERATION NUMBER    2

       No.  Residual tot.,    conf., and orb.    Bnorm      Frequency 
      ----------------------------------------------------------------
         1    1.45996D-01  0.00D+00  1.46D-01  2.84D+00    0.00000D+00
         2    1.46539D-01  0.00D+00  1.47D-01  2.85D+00    2.01593D-02
         3    1.48201D-01  0.00D+00  1.48D-01  2.89D+00    4.03186D-02
         4    1.51087D-01  0.00D+00  1.51D-01  2.94D+00    6.04779D-02
         5    1.55389D-01  0.00D+00  1.55D-01  3.02D+00    8.06372D-02
         6    1.61414D-01  0.00D+00  1.61D-01  3.13D+00    1.00797D-01
         7    1.69643D-01  0.00D+00  1.70D-01  3.28D+00    1.20956D-01
         8    1.80817D-01  0.00D+00  1.81D-01  3.47D+00    1.41115D-01
         9    1.96110D-01  0.00D+00  1.96D-01  3.72D+00    1.61274D-01

 ** RSPCTL MICROITERATION NUMBER    3

       No.  Residual tot.,    conf., and orb.    Bnorm      Frequency 
      ----------------------------------------------------------------
         1    1.69306D-02  0.00D+00  1.69D-02  2.85D+00    0.00000D+00
         2    1.69885D-02  0.00D+00  1.70D-02  2.86D+00    2.01593D-02
         3    1.71656D-02  0.00D+00  1.72D-02  2.89D+00    4.03186D-02
         4    1.74726D-02  0.00D+00  1.75D-02  2.94D+00    6.04779D-02
         5    1.79291D-02  0.00D+00  1.79D-02  3.02D+00    8.06372D-02
         6    1.85669D-02  0.00D+00  1.86D-02  3.13D+00    1.00797D-01
         7    1.94355D-02  0.00D+00  1.94D-02  3.28D+00    1.20956D-01
         8    2.06124D-02  0.00D+00  2.06D-02  3.47D+00    1.41115D-01
         9    2.22216D-02  0.00D+00  2.22D-02  3.72D+00    1.61274D-01

 ** RSPCTL MICROITERATION NUMBER    4

       No.  Residual tot.,    conf., and orb.    Bnorm      Frequency 
      ----------------------------------------------------------------
         1    1.35451D-03  0.00D+00  1.35D-03  2.85D+00    0.00000D+00
         2    1.36581D-03  0.00D+00  1.37D-03  2.86D+00    2.01593D-02
         3    1.40042D-03  0.00D+00  1.40D-03  2.89D+00    4.03186D-02
         4    1.46057D-03  0.00D+00  1.46D-03  2.94D+00    6.04779D-02
         5    1.55027D-03  0.00D+00  1.55D-03  3.02D+00    8.06372D-02
         6    1.67578D-03  0.00D+00  1.68D-03  3.13D+00    1.00797D-01
         7    1.84649D-03  0.00D+00  1.85D-03  3.28D+00    1.20956D-01
         8    2.07646D-03  0.00D+00  2.08D-03  3.47D+00    1.41115D-01
         9    2.38716D-03  0.00D+00  2.39D-03  3.72D+00    1.61274D-01

 *** THE REQUESTED    9 SOLUTION VECTORS CONVERGED

 Convergence of RSP solution vectors, threshold = 1.00D-03
 ---------------------------------------------------------------
 (dimension of paired reduced space:   70)
 RSP solution vector no.    1; norm of residual   4.76D-04
 RSP solution vector no.    2; norm of residual   4.78D-04
 RSP solution vector no.    3; norm of residual   4.85D-04
 RSP solution vector no.    4; norm of residual   4.96D-04
 RSP solution vector no.    5; norm of residual   5.13D-04
 RSP solution vector no.    6; norm of residual   5.35D-04
 RSP solution vector no.    7; norm of residual   5.63D-04
 RSP solution vector no.    8; norm of residual   5.98D-04
 RSP solution vector no.    9; norm of residual   6.41D-04

 *** RSPCTL MICROITERATIONS CONVERGED


           Final output of second order properties from linear response
           ------------------------------------------------------------


@ Spin symmetry of operators: singlet

 Note that minus the linear response function: - << A; B >>(omega) is printed.
 The results are of quadratic accuracy using Sellers formula.

@ FREQUENCY INDEPENDENT SECOND ORDER PROPERTIES

@ -<< YDIPLEN  ; YDIPLEN  >> =  1.122780626464E+01

@ FREQUENCY DEPENDENT SECOND ORDER PROPERTIES WITH FREQUENCY :

@    a.u.:  2.0159312D-02
@    cm-1:  4.4244576D+03
@    eV  :  5.4856280D-01
@  kJ/mol:  5.2928267D+01
@    nm  :  2.2601640D+03

@ -<< YDIPLEN  ; YDIPLEN  >> =  1.124471793885E+01

@ FREQUENCY DEPENDENT SECOND ORDER PROPERTIES WITH FREQUENCY :

@    a.u.:  4.0318625D-02
@    cm-1:  8.8489153D+03
@    eV  :  1.0971256D+00
@  kJ/mol:  1.0585653D+02
@    nm  :  1.1300820D+03

@ -<< YDIPLEN  ; YDIPLEN  >> =  1.129601092824E+01

@ FREQUENCY DEPENDENT SECOND ORDER PROPERTIES WITH FREQUENCY :

@    a.u.:  6.0477937D-02
@    cm-1:  1.3273373D+04
@    eV  :  1.6456884D+00
@  kJ/mol:  1.5878480D+02
@    nm  :  7.5338801D+02

@ -<< YDIPLEN  ; YDIPLEN  >> =  1.138341878662E+01

@ FREQUENCY DEPENDENT SECOND ORDER PROPERTIES WITH FREQUENCY :

@    a.u.:  8.0637250D-02
@    cm-1:  1.7697831D+04
@    eV  :  2.1942512D+00
@  kJ/mol:  2.1171307D+02
@    nm  :  5.6504101D+02

@ -<< YDIPLEN  ; YDIPLEN  >> =  1.151004292628E+01

@ FREQUENCY DEPENDENT SECOND ORDER PROPERTIES WITH FREQUENCY :

@    a.u.:  1.0079656D-01
@    cm-1:  2.2122288D+04
@    eV  :  2.7428140D+00
@  kJ/mol:  2.6464133D+02
@    nm  :  4.5203281D+02

@ -<< YDIPLEN  ; YDIPLEN  >> =  1.168072254040E+01

@ FREQUENCY DEPENDENT SECOND ORDER PROPERTIES WITH FREQUENCY :

@    a.u.:  1.2095587D-01
@    cm-1:  2.6546746D+04
@    eV  :  3.2913768D+00
@  kJ/mol:  3.1756960D+02
@    nm  :  3.7669400D+02

@ -<< YDIPLEN  ; YDIPLEN  >> =  1.190267727931E+01

@ FREQUENCY DEPENDENT SECOND ORDER PROPERTIES WITH FREQUENCY :

@    a.u.:  1.4111519D-01
@    cm-1:  3.0971203D+04
@    eV  :  3.8399396D+00
@  kJ/mol:  3.7049787D+02
@    nm  :  3.2288058D+02

@ -<< YDIPLEN  ; YDIPLEN  >> =  1.218661123681E+01

@ FREQUENCY DEPENDENT SECOND ORDER PROPERTIES WITH FREQUENCY :

@    a.u.:  1.6127450D-01
@    cm-1:  3.5395661D+04
@    eV  :  4.3885024D+00
@  kJ/mol:  4.2342613D+02
@    nm  :  2.8252050D+02

@ -<< YDIPLEN  ; YDIPLEN  >> =  1.254866055960E+01


 Time used in linear response calculation is      0.89 CPU seconds for symmetry 3

  Total CPU  time used in RESPONSE:   2.87 seconds
  Total wall time used in RESPONSE:   2.92 seconds


                   .-------------------------------------------.
                   | End of Dynamic Property Section (RESPONS) |
                   `-------------------------------------------'

  Total CPU  time used in DALTON:   3.94 seconds
  Total wall time used in DALTON:   4.03 seconds

 
     Date and time (Linux)  : Wed Jan 11 14:21:41 2023
     Host name              : cn023                                   
