

     ************************************************************************
     *************** Dalton - An Electronic Structure Program ***************
     ************************************************************************

    This is output from DALTON release Dalton2020.0 (2020)
         ( Web site: http://daltonprogram.org )

   ----------------------------------------------------------------------------

    NOTE:
     
    Dalton is an experimental code for the evaluation of molecular
    properties using (MC)SCF, DFT, CI, and CC wave functions.
    The authors accept no responsibility for the performance of
    the code or for the correctness of the results.
     
    The code (in whole or part) is provided under a licence and
    is not to be reproduced for further distribution without
    the written permission of the authors or their representatives.
     
    See the home page "http://daltonprogram.org" for further information.
     
    If results obtained with this code are published,
    the appropriate citations would be both of:
     
       K. Aidas, C. Angeli, K. L. Bak, V. Bakken, R. Bast,
       L. Boman, O. Christiansen, R. Cimiraglia, S. Coriani,
       P. Dahle, E. K. Dalskov, U. Ekstroem,
       T. Enevoldsen, J. J. Eriksen, P. Ettenhuber, B. Fernandez,
       L. Ferrighi, H. Fliegl, L. Frediani, K. Hald, A. Halkier,
       C. Haettig, H. Heiberg, T. Helgaker, A. C. Hennum,
       H. Hettema, E. Hjertenaes, S. Hoest, I.-M. Hoeyvik,
       M. F. Iozzi, B. Jansik, H. J. Aa. Jensen, D. Jonsson,
       P. Joergensen, J. Kauczor, S. Kirpekar,
       T. Kjaergaard, W. Klopper, S. Knecht, R. Kobayashi, H. Koch,
       J. Kongsted, A. Krapp, K. Kristensen, A. Ligabue,
       O. B. Lutnaes, J. I. Melo, K. V. Mikkelsen, R. H. Myhre,
       C. Neiss, C. B. Nielsen, P. Norman, J. Olsen,
       J. M. H. Olsen, A. Osted, M. J. Packer, F. Pawlowski,
       T. B. Pedersen, P. F. Provasi, S. Reine, Z. Rinkevicius,
       T. A. Ruden, K. Ruud, V. Rybkin, P. Salek, C. C. M. Samson,
       A. Sanchez de Meras, T. Saue, S. P. A. Sauer,
       B. Schimmelpfennig, K. Sneskov, A. H. Steindal,
       K. O. Sylvester-Hvid, P. R. Taylor, A. M. Teale,
       E. I. Tellgren, D. P. Tew, A. J. Thorvaldsen, L. Thoegersen,
       O. Vahtras, M. A. Watson, D. J. D. Wilson, M. Ziolkowski
       and H. Agren,
       "The Dalton quantum chemistry program system",
       WIREs Comput. Mol. Sci. 2014, 4:269–284 (doi: 10.1002/wcms.1172)
     
    and
     
       Dalton, a molecular electronic structure program,
       Release Dalton2020.0 (2020), see http://daltonprogram.org
   ----------------------------------------------------------------------------

    Authors in alphabetical order (Major contribution(s) in parenthesis):

  Kestutis Aidas,           Vilnius University,           Lithuania   (QM/MM)
  Celestino Angeli,         University of Ferrara,        Italy       (NEVPT2)
  Keld L. Bak,              UNI-C,                        Denmark     (AOSOPPA, non-adiabatic coupling, magnetic properties)
  Vebjoern Bakken,          University of Oslo,           Norway      (DALTON; geometry optimizer, symmetry detection)
  Radovan Bast,             UiT The Arctic U. of Norway,  Norway      (DALTON installation and execution frameworks)
  Pablo Baudin,             University of Valencia,       Spain       (Cholesky excitation energies)
  Linus Boman,              NTNU,                         Norway      (Cholesky decomposition and subsystems)
  Bruno N. Cabral Tenorio,  Technical Univ. of Denmark,   Denmark     (Lanczos-based CC methods)
  Ove Christiansen,         Aarhus University,            Denmark     (CC module)
  Renzo Cimiraglia,         University of Ferrara,        Italy       (NEVPT2)
  Sonia Coriani,            Technical Univ. of Denmark,   Denmark     (CC and RESPONS modules)
  Janusz Cukras,            University of Warsaw,         Poland      (MChD in RESPONS)
  Paal Dahle,               University of Oslo,           Norway      (Parallelization)
  Erik K. Dalskov,          UNI-C,                        Denmark     (SOPPA)
  Thomas Enevoldsen,        Univ. of Southern Denmark,    Denmark     (SOPPA)
  Janus J. Eriksen,         Aarhus University,            Denmark     (Polarizable embedding, TDA)
  Rasmus Faber,             Technical Univ. of Denmark,   Denmark     (Vib.avg. NMR w. SOPPA, parallel AO-SOPPA, CVS-CC and EOMCC)
  Tobias Fahleson,          KTH Stockholm,                Sweden      (Damped cubic response)
  Berta Fernandez,          U. of Santiago de Compostela, Spain       (Doublet spin, ESR in RESPONS)
  Lara Ferrighi,            Aarhus University,            Denmark     (PCM Cubic response)
  Heike Fliegl,             University of Oslo,           Norway      (CCSD(R12))
  Luca Frediani,            UiT The Arctic U. of Norway,  Norway      (PCM)
  Emmanuel Fromager,        Univ. Strasbourg,             France      (MC-srDFT)
  Bin Gao,                  UiT The Arctic U. of Norway,  Norway      (Gen1Int library)
  Andre S. P. Gomes,        CNRS/Universite de Lille,     France      (Frozen density embedding)
  Christof Haettig,         Ruhr-University Bochum,       Germany     (CC module)
  Kasper Hald,              Aarhus University,            Denmark     (CC module)
  Asger Halkier,            Aarhus University,            Denmark     (CC module)
  Frederik Beyer Hansen,    University of Copenhagen,     Denmark     (Parallel AO-SOPPA)
  Erik D. Hedegaard,        Univ. of Southern Denmark,    Denmark     (Polarizable embedding, QM/MM, and MC-srDFT)
  Hanne Heiberg,            University of Oslo,           Norway      (Geometry analysis, selected one-electron integrals)
  Trygve Helgaker,          University of Oslo,           Norway      (DALTON; ABACUS, ERI, DFT modules, London, and much more)
  Alf Christian Hennum,     University of Oslo,           Norway      (Parity violation)
  Hinne Hettema,            University of Auckland,       New Zealand (Quadratic response in RESPONS; SIRIUS supersymmetry)
  Eirik Hjertenaes,         NTNU,                         Norway      (Cholesky decomposition)
  Pi A. B. Haase,           University of Copenhagen,     Denmark     (Triplet AO-SOPPA)
  Maria Francesca Iozzi,    University of Oslo,           Norway      (RPA)
  Christoph Jacob           TU Braunschweig               Germany     (Frozen density embedding)
  Brano Jansik              Technical Univ. of Ostrava    Czech Rep.  (DFT cubic response)
  Hans Joergen Aa. Jensen,  Univ. of Southern Denmark,    Denmark     (DALTON; SIRIUS, RESPONS, ABACUS, MC-srDFT, and much more)
  Dan Jonsson,              UiT The Arctic U. of Norway,  Norway      (Cubic response in RESPONS module)
  Poul Joergensen,          Aarhus University,            Denmark     (RESPONS, ABACUS, and CC modules)
  Maciej Kaminski,          University of Warsaw,         Poland      (CPPh in RESPONS)
  Joanna Kauczor,           Linkoeping University,        Sweden      (Complex polarization propagator (CPP) module)
  Sheela Kirpekar,          Univ. of Southern Denmark,    Denmark     (Mass-velocity & Darwin integrals)
  Erik Kjellgren,           Univ. of Southern Denmark,    Denmark     (MC-srDFT)
  Wim Klopper,              KIT Karlsruhe,                Germany     (R12 code in CC, SIRIUS, and ABACUS modules)
  Stefan Knecht,            ETH Zurich,                   Switzerland (Parallel CI and MCSCF, MC-srDFT)
  Rika Kobayashi,           Australian National Univ.,    Australia   (DIIS in CC, London in MCSCF)
  Henrik Koch,              NTNU,                         Norway      (CC module, Cholesky decomposition)
  Jacob Kongsted,           Univ. of Southern Denmark,    Denmark     (Polarizable embedding, polarizable density embedding, QM/MM)
  Andrea Ligabue,           University of Modena,         Italy       (CTOCD, AOSOPPA)
  Nanna H. List             Univ. of Southern Denmark,    Denmark     (Polarizable embedding)
  Ola B. Lutnaes,           University of Oslo,           Norway      (DFT Hessian)
  Juan I. Melo,             University of Buenos Aires,   Argentina   (LRESC, Relativistic Effects on NMR Shieldings)
  Kurt V. Mikkelsen,        University of Copenhagen,     Denmark     (MC-SCRF and QM/MM)
  Rolf H. Myhre,            NTNU,                         Norway      (Subsystems and CC3)
  Christian Neiss,          Univ. Erlangen-Nuernberg,     Germany     (CCSD(R12))
  Christian B. Nielsen,     University of Copenhagen,     Denmark     (QM/MM)
  Patrick Norman,           KTH Stockholm,                Sweden      (Cubic response and complex frequency response in RESPONS)
  Jeppe Olsen,              Aarhus University,            Denmark     (SIRIUS CI/density modules)
  Jogvan Magnus H. Olsen,   Aarhus University,            Denmark     (Polarizable embedding and polarizable density embedding)
  Anders Osted,             Copenhagen University,        Denmark     (QM/MM)
  Martin J. Packer,         University of Sheffield,      UK          (SOPPA)
  Filip Pawlowski,          Kazimierz Wielki University,  Poland      (CC3)
  Morten N. Pedersen,       Univ. of Southern Denmark,    Denmark     (Polarizable embedding)
  Thomas B. Pedersen,       University of Oslo,           Norway      (Cholesky decomposition)
  Patricio F. Provasi,      University of Northeastern,   Argentina   (Analysis of coupling constants in localized orbitals)
  Peter Reinholdt,          Univ. of Southern Denmark,    Denmark     (Polarizable embedding and polarizable density embedding)
  Zilvinas Rinkevicius,     KTH Stockholm,                Sweden      (open-shell DFT, ESR)
  Elias Rudberg,            KTH Stockholm,                Sweden      (DFT grid and basis info)
  Torgeir A. Ruden,         University of Oslo,           Norway      (Numerical derivatives in ABACUS)
  Kenneth Ruud,             UiT The Arctic U. of Norway,  Norway      (DALTON; ABACUS magnetic properties and much more)
  Pawel Salek,              KTH Stockholm,                Sweden      (DALTON; DFT code)
  Claire C. M. Samson       University of Karlsruhe       Germany     (Boys localization, r12 integrals in ERI)
  Alfredo Sanchez de Meras, University of Valencia,       Spain       (CC module, Cholesky decomposition)
  Trond Saue,               Paul Sabatier University,     France      (direct Fock matrix construction)
  Stephan P. A. Sauer,      University of Copenhagen,     Denmark     (SOPPA(CCSD), SOPPA prop., AOSOPPA, vibrational g-factors)
  Bernd Schimmelpfennig,    Forschungszentrum Karlsruhe,  Germany     (AMFI module)
  Anna K. Schnack-Petersen, University of Copenhagen,     Denmark     (RPA(D) and HRPA(D) properties in AOSOPPA)
  Kristian Sneskov,         Aarhus University,            Denmark     (Polarizable embedding, QM/MM)
  Arnfinn H. Steindal,      UiT The Arctic U. of Norway,  Norway      (parallel QM/MM, polarizable embedding)
  Casper Steinmann,         Aalborg University,           Denmark     (QFIT, polarizable embedding)
  K. O. Sylvester-Hvid,     University of Copenhagen,     Denmark     (MC-SCRF)
  Peter R. Taylor,          VLSCI/Univ. of Melbourne,     Australia   (Symmetry handling ABACUS, integral transformation)
  Andrew M. Teale,          University of Nottingham,     England     (DFT-AC, DFT-D)
  David P. Tew,             University of Bristol,        England     (CCSD(R12))
  Julien Toulouse,          Sorbonne Univ.,               France      (MC-srDFT)
  Olav Vahtras,             KTH Stockholm,                Sweden      (Triplet response, spin-orbit, ESR, TDDFT, open-shell DFT)
  Lucas Visscher,           Vrije Universiteit Amsterdam, Netherlands (Frozen density embedding)
  David J. Wilson,          La Trobe University,          Australia   (DFT Hessian and DFT magnetizabilities)
  Hans Agren,               KTH Stockholm,                Sweden      (SIRIUS module, RESPONS, MC-SCRF solvation)
 --------------------------------------------------------------------------------

     Date and time (Linux)  : Wed Jan 11 14:17:30 2023
     Host name              : cn023                                   

 * Work memory size             :    64000000 =  488.28 megabytes.

 * Directories for basis set searches:
   1) /gpfs/projects/rjh/adrian/fd_compare/dalton/hf/CO/dipole
   2) /gpfs/projects/rjh/adrian/dalton/build/basis


Compilation information
-----------------------

 Who compiled             | ahurtado
 Host                     | sn-mem
 System                   | Linux-3.10.0-1160.24.1.el7.x86_64
 CMake generator          | Unix Makefiles
 Processor                | x86_64
 64-bit integers          | OFF
 MPI                      | ON
 Fortran compiler         | /gpfs/software/intel/oneAPI/2021_4/mpi/2021.4.0/bi
                          | n/mpif90
 Fortran compiler version | GNU Fortran (GCC) 11.2.0
 C compiler               | /gpfs/software/intel/oneAPI/2021_4/mpi/2021.4.0/bi
                          | n/mpicc
 C compiler version       | gcc (GCC) 11.2.0
 C++ compiler             | /gpfs/software/intel/oneAPI/2021_4/mpi/2021.4.0/bi
                          | n/mpicxx
 C++ compiler version     | unknown
 BLAS                     | /gpfs/software/intel/oneAPI/2021_4/mkl/2021.4.0/li
                          | b/intel64/libmkl_gf_lp64.so;/gpfs/software/intel/o
                          | neAPI/2021_4/mkl/2021.4.0/lib/intel64/libmkl_seque
                          | ntial.so;/gpfs/software/intel/oneAPI/2021_4/mkl/20
                          | 21.4.0/lib/intel64/libmkl_core.so;/usr/lib64/libpt
                          | hread.so;/usr/lib64/libm.so
 LAPACK                   | /gpfs/software/intel/oneAPI/2021_4/mkl/2021.4.0/li
                          | b/intel64/libmkl_lapack95_lp64.a;/gpfs/software/in
                          | tel/oneAPI/2021_4/mkl/2021.4.0/lib/intel64/libmkl_
                          | gf_lp64.so
 Static linking           | OFF
 Last Git revision        | 66052b3af5ea7225e31178bf9a8b031913c72190
 Git branch               | (HEAD detached at Dalton2020.0)
 Configuration time       | 2023-01-11 13:33:37.731835

 * MPI parallel run using 20 processes.


   Content of the .dal input file
 ----------------------------------

**DALTON INPUT
.RUN RESPONSE
.DIRECT
**WAVE FUNCTIONS
.HF
**RESPONSE
*LINEAR
.DIPLEN
.FREQUENCIES
9
0.0 0.0201593125 0.040318625 0.060477937499999995 0.08063725 0.10079656249999999 0.12095587499999999
**END OF DALTON INPUT


   Content of the .mol file
 ----------------------------

BASIS
d-aug-cc-pV5Z
blah
blah
Atomtype=2 Atomic
Charge=6 Atoms=1
C_a 0.000000000000 0.000000000000 0.000000000000
Charge=8 Atoms=1
O_a 0.000000000000 0.000000000000 2.132000000000


       *******************************************************************
       *********** Output from DALTON general input processing ***********
       *******************************************************************

 --------------------------------------------------------------------------------
   Overall default print level:    0
   Print level for DALTON.STAT:    1

    Parallel calculation using MPI
    AO-direct calculation (in sections where implemented)
    HERMIT 1- and 2-electron integral sections will be executed
    "Old" integral transformation used (limited to max 255 basis functions)
    Wave function sections will be executed (SIRIUS module)
    Dynamic molecular response properties section will be executed (RESPONSE module)
 --------------------------------------------------------------------------------


   ****************************************************************************
   *************** Output of molecule and basis set information ***************
   ****************************************************************************


    The two title cards from your ".mol" input:
    ------------------------------------------------------------------------
 1: blah                                                                    
 2: blah                                                                    
    ------------------------------------------------------------------------

  Atomic type no.    1
  --------------------
  Nuclear charge:   6.00000
  Number of symmetry independent centers:    1
  Number of basis sets to read;    2
  Basis set file used for this atomic type with Z =   6 :
     "/gpfs/projects/rjh/adrian/dalton/build/basis/aug-cc-pV5Z"

  Atomic type no.    2
  --------------------
  Nuclear charge:   8.00000
  Number of symmetry independent centers:    1
  Number of basis sets to read;    2
  Basis set file used for this atomic type with Z =   8 :
     "/gpfs/projects/rjh/adrian/dalton/build/basis/aug-cc-pV5Z"


                      SYMADD: Requested addition of symmetry
                      --------------------------------------

 Symmetry test threshold:  5.00E-06

@   The molecule is centered at center of mass and rotated
@   so principal axes of inertia are along coordinate axes.

 Symmetry class found: C(oo,v)        

 Symmetry Independent Centres             
 ----------------------------
O_a    8 :      0.00000000     0.00000000     0.91388025  Isotope  1
C_a    6 :      0.00000000     0.00000000    -1.21811975  Isotope  1

 The following symmetry elements were found:   X  Y     


                         SYMGRP: Point group information
                         -------------------------------

@    Full point group is: C(oo,v)        
@    Represented as:      C2v

@  * The irrep name for each symmetry:    1: A1     2: B1     3: B2     4: A2 

   * The point group was generated by:

      Reflection in the yz-plane
      Reflection in the xz-plane

   * Group multiplication table

        |  E   C2z  Oxz  Oyz
   -----+--------------------
     E  |  E   C2z  Oxz  Oyz
    C2z | C2z   E   Oyz  Oxz
    Oxz | Oxz  Oyz   E   C2z
    Oyz | Oyz  Oxz  C2z   E 

   * Character table

        |  E   C2z  Oxz  Oyz
   -----+--------------------
    A1  |   1    1    1    1
    B1  |   1   -1    1   -1
    B2  |   1   -1   -1    1
    A2  |   1    1   -1   -1

   * Direct product table

        | A1   B1   B2   A2 
   -----+--------------------
    A1  | A1   B1   B2   A2 
    B1  | B1   A1   A2   B2 
    B2  | B2   A2   A1   B1 
    A2  | A2   B2   B1   A1 


                                 Isotopic Masses
                                 ---------------

                           C_a        12.000000
                           O_a        15.994915

                       Total mass:    27.994915 amu
                       Natural abundance:  98.663 %

 Center-of-mass coordinates (a.u.):    0.000000    0.000000    0.000000
 Center-of-mass coordinates (Angs):    0.000000    0.000000    0.000000


  Atoms and basis sets
  --------------------

  Number of atom types :    2
  Total number of atoms:    2

  Basis set used is "d-aug-cc-pV5Z" from the basis set library.

  label    atoms   charge   prim   cont     basis
  ----------------------------------------------------------------------
  C_          1    6.0000   180   163      [16s10p6d5f4g3h|8s7p6d5f4g3h]                      
  O_          1    8.0000   180   163      [16s10p6d5f4g3h|8s7p6d5f4g3h]                      
  ----------------------------------------------------------------------
  total:      2   14.0000   360   326
  ----------------------------------------------------------------------
  Spherical harmonic basis used.

  Threshold for neglecting AO integrals:  1.00D-12


  Cartesian Coordinates (a.u.)
  ----------------------------

  Total number of coordinates:    6
  C_a     :     1  x   0.0000000000    2  y   0.0000000000    3  z  -1.2181197471
  O_a     :     4  x   0.0000000000    5  y   0.0000000000    6  z   0.9138802529


  Symmetry Coordinates
  --------------------

  Number of coordinates in each symmetry:     2    2    2    0

  Symmetry  A1  ( 1)

    1   C_a   z    3
    2   O_a   z    6

  Symmetry  B1  ( 2)

    3   C_a   x    1
    4   O_a   x    4

  Symmetry  B2  ( 3)

    5   C_a   y    2
    6   O_a   y    5


   Interatomic separations (in Angstrom):
   --------------------------------------

            C_a         O_a   
            ------      ------
 C_a   :    0.000000
 O_a   :    1.128206    0.000000


  Max    interatomic separation is    1.1282 Angstrom (    2.1320 Bohr)
  between atoms    2 and    1, "O_a   " and "C_a   ".

  Min YX interatomic separation is    1.1282 Angstrom (    2.1320 Bohr)


  Bond distances (Angstrom):
  --------------------------

                  atom 1     atom 2       distance
                  ------     ------       --------
  bond distance:  O_a        C_a          1.128206




 Principal moments of inertia (u*A**2) and principal axes
 --------------------------------------------------------

   IA       0.000000          0.000000    0.000000    1.000000
   IB       8.726914          0.000000    1.000000    0.000000
   IC       8.726914          1.000000    0.000000    0.000000


 Rotational constants
 --------------------

@    The molecule is linear.

               B =        57910.39 MHz     (    1.931683 cm-1)


@  Nuclear repulsion energy :   22.514071294559 Hartree


  Symmetry Orbitals
  -----------------

  Number of orbitals in each symmetry:         116   80   80   50


  Symmetry  A1 ( 1)

    1     C_a      1s         1
    2     C_a      1s         2
    3     C_a      1s         3
    4     C_a      1s         4
    5     C_a      1s         5
    6     C_a      1s         6
    7     C_a      1s         7
    8     C_a      1s         8
    9     C_a      2pz       11
   10     C_a      2pz       14
   11     C_a      2pz       17
   12     C_a      2pz       20
   13     C_a      2pz       23
   14     C_a      2pz       26
   15     C_a      2pz       29
   16     C_a      3d0       32
   17     C_a      3d2+      34
   18     C_a      3d0       37
   19     C_a      3d2+      39
   20     C_a      3d0       42
   21     C_a      3d2+      44
   22     C_a      3d0       47
   23     C_a      3d2+      49
   24     C_a      3d0       52
   25     C_a      3d2+      54
   26     C_a      3d0       57
   27     C_a      3d2+      59
   28     C_a      4f0       63
   29     C_a      4f2+      65
   30     C_a      4f0       70
   31     C_a      4f2+      72
   32     C_a      4f0       77
   33     C_a      4f2+      79
   34     C_a      4f0       84
   35     C_a      4f2+      86
   36     C_a      4f0       91
   37     C_a      4f2+      93
   38     C_a      5g0       99
   39     C_a      5g2+     101
   40     C_a      5g4+     103
   41     C_a      5g0      108
   42     C_a      5g2+     110
   43     C_a      5g4+     112
   44     C_a      5g0      117
   45     C_a      5g2+     119
   46     C_a      5g4+     121
   47     C_a      5g0      126
   48     C_a      5g2+     128
   49     C_a      5g4+     130
   50     C_a      6h0      136
   51     C_a      6h2+     138
   52     C_a      6h4+     140
   53     C_a      6h0      147
   54     C_a      6h2+     149
   55     C_a      6h4+     151
   56     C_a      6h0      158
   57     C_a      6h2+     160
   58     C_a      6h4+     162
   59     O_a      1s       164
   60     O_a      1s       165
   61     O_a      1s       166
   62     O_a      1s       167
   63     O_a      1s       168
   64     O_a      1s       169
   65     O_a      1s       170
   66     O_a      1s       171
   67     O_a      2pz      174
   68     O_a      2pz      177
   69     O_a      2pz      180
   70     O_a      2pz      183
   71     O_a      2pz      186
   72     O_a      2pz      189
   73     O_a      2pz      192
   74     O_a      3d0      195
   75     O_a      3d2+     197
   76     O_a      3d0      200
   77     O_a      3d2+     202
   78     O_a      3d0      205
   79     O_a      3d2+     207
   80     O_a      3d0      210
   81     O_a      3d2+     212
   82     O_a      3d0      215
   83     O_a      3d2+     217
   84     O_a      3d0      220
   85     O_a      3d2+     222
   86     O_a      4f0      226
   87     O_a      4f2+     228
   88     O_a      4f0      233
   89     O_a      4f2+     235
   90     O_a      4f0      240
   91     O_a      4f2+     242
   92     O_a      4f0      247
   93     O_a      4f2+     249
   94     O_a      4f0      254
   95     O_a      4f2+     256
   96     O_a      5g0      262
   97     O_a      5g2+     264
   98     O_a      5g4+     266
   99     O_a      5g0      271
  100     O_a      5g2+     273
  101     O_a      5g4+     275
  102     O_a      5g0      280
  103     O_a      5g2+     282
  104     O_a      5g4+     284
  105     O_a      5g0      289
  106     O_a      5g2+     291
  107     O_a      5g4+     293
  108     O_a      6h0      299
  109     O_a      6h2+     301
  110     O_a      6h4+     303
  111     O_a      6h0      310
  112     O_a      6h2+     312
  113     O_a      6h4+     314
  114     O_a      6h0      321
  115     O_a      6h2+     323
  116     O_a      6h4+     325


  Symmetry  B1 ( 2)

  117     C_a      2px        9
  118     C_a      2px       12
  119     C_a      2px       15
  120     C_a      2px       18
  121     C_a      2px       21
  122     C_a      2px       24
  123     C_a      2px       27
  124     C_a      3d1+      33
  125     C_a      3d1+      38
  126     C_a      3d1+      43
  127     C_a      3d1+      48
  128     C_a      3d1+      53
  129     C_a      3d1+      58
  130     C_a      4f1+      64
  131     C_a      4f3+      66
  132     C_a      4f1+      71
  133     C_a      4f3+      73
  134     C_a      4f1+      78
  135     C_a      4f3+      80
  136     C_a      4f1+      85
  137     C_a      4f3+      87
  138     C_a      4f1+      92
  139     C_a      4f3+      94
  140     C_a      5g1+     100
  141     C_a      5g3+     102
  142     C_a      5g1+     109
  143     C_a      5g3+     111
  144     C_a      5g1+     118
  145     C_a      5g3+     120
  146     C_a      5g1+     127
  147     C_a      5g3+     129
  148     C_a      6h1+     137
  149     C_a      6h3+     139
  150     C_a      6h5+     141
  151     C_a      6h1+     148
  152     C_a      6h3+     150
  153     C_a      6h5+     152
  154     C_a      6h1+     159
  155     C_a      6h3+     161
  156     C_a      6h5+     163
  157     O_a      2px      172
  158     O_a      2px      175
  159     O_a      2px      178
  160     O_a      2px      181
  161     O_a      2px      184
  162     O_a      2px      187
  163     O_a      2px      190
  164     O_a      3d1+     196
  165     O_a      3d1+     201
  166     O_a      3d1+     206
  167     O_a      3d1+     211
  168     O_a      3d1+     216
  169     O_a      3d1+     221
  170     O_a      4f1+     227
  171     O_a      4f3+     229
  172     O_a      4f1+     234
  173     O_a      4f3+     236
  174     O_a      4f1+     241
  175     O_a      4f3+     243
  176     O_a      4f1+     248
  177     O_a      4f3+     250
  178     O_a      4f1+     255
  179     O_a      4f3+     257
  180     O_a      5g1+     263
  181     O_a      5g3+     265
  182     O_a      5g1+     272
  183     O_a      5g3+     274
  184     O_a      5g1+     281
  185     O_a      5g3+     283
  186     O_a      5g1+     290
  187     O_a      5g3+     292
  188     O_a      6h1+     300
  189     O_a      6h3+     302
  190     O_a      6h5+     304
  191     O_a      6h1+     311
  192     O_a      6h3+     313
  193     O_a      6h5+     315
  194     O_a      6h1+     322
  195     O_a      6h3+     324
  196     O_a      6h5+     326


  Symmetry  B2 ( 3)

  197     C_a      2py       10
  198     C_a      2py       13
  199     C_a      2py       16
  200     C_a      2py       19
  201     C_a      2py       22
  202     C_a      2py       25
  203     C_a      2py       28
  204     C_a      3d1-      31
  205     C_a      3d1-      36
  206     C_a      3d1-      41
  207     C_a      3d1-      46
  208     C_a      3d1-      51
  209     C_a      3d1-      56
  210     C_a      4f3-      60
  211     C_a      4f1-      62
  212     C_a      4f3-      67
  213     C_a      4f1-      69
  214     C_a      4f3-      74
  215     C_a      4f1-      76
  216     C_a      4f3-      81
  217     C_a      4f1-      83
  218     C_a      4f3-      88
  219     C_a      4f1-      90
  220     C_a      5g3-      96
  221     C_a      5g1-      98
  222     C_a      5g3-     105
  223     C_a      5g1-     107
  224     C_a      5g3-     114
  225     C_a      5g1-     116
  226     C_a      5g3-     123
  227     C_a      5g1-     125
  228     C_a      6h5-     131
  229     C_a      6h3-     133
  230     C_a      6h1-     135
  231     C_a      6h5-     142
  232     C_a      6h3-     144
  233     C_a      6h1-     146
  234     C_a      6h5-     153
  235     C_a      6h3-     155
  236     C_a      6h1-     157
  237     O_a      2py      173
  238     O_a      2py      176
  239     O_a      2py      179
  240     O_a      2py      182
  241     O_a      2py      185
  242     O_a      2py      188
  243     O_a      2py      191
  244     O_a      3d1-     194
  245     O_a      3d1-     199
  246     O_a      3d1-     204
  247     O_a      3d1-     209
  248     O_a      3d1-     214
  249     O_a      3d1-     219
  250     O_a      4f3-     223
  251     O_a      4f1-     225
  252     O_a      4f3-     230
  253     O_a      4f1-     232
  254     O_a      4f3-     237
  255     O_a      4f1-     239
  256     O_a      4f3-     244
  257     O_a      4f1-     246
  258     O_a      4f3-     251
  259     O_a      4f1-     253
  260     O_a      5g3-     259
  261     O_a      5g1-     261
  262     O_a      5g3-     268
  263     O_a      5g1-     270
  264     O_a      5g3-     277
  265     O_a      5g1-     279
  266     O_a      5g3-     286
  267     O_a      5g1-     288
  268     O_a      6h5-     294
  269     O_a      6h3-     296
  270     O_a      6h1-     298
  271     O_a      6h5-     305
  272     O_a      6h3-     307
  273     O_a      6h1-     309
  274     O_a      6h5-     316
  275     O_a      6h3-     318
  276     O_a      6h1-     320


  Symmetry  A2 ( 4)

  277     C_a      3d2-      30
  278     C_a      3d2-      35
  279     C_a      3d2-      40
  280     C_a      3d2-      45
  281     C_a      3d2-      50
  282     C_a      3d2-      55
  283     C_a      4f2-      61
  284     C_a      4f2-      68
  285     C_a      4f2-      75
  286     C_a      4f2-      82
  287     C_a      4f2-      89
  288     C_a      5g4-      95
  289     C_a      5g2-      97
  290     C_a      5g4-     104
  291     C_a      5g2-     106
  292     C_a      5g4-     113
  293     C_a      5g2-     115
  294     C_a      5g4-     122
  295     C_a      5g2-     124
  296     C_a      6h4-     132
  297     C_a      6h2-     134
  298     C_a      6h4-     143
  299     C_a      6h2-     145
  300     C_a      6h4-     154
  301     C_a      6h2-     156
  302     O_a      3d2-     193
  303     O_a      3d2-     198
  304     O_a      3d2-     203
  305     O_a      3d2-     208
  306     O_a      3d2-     213
  307     O_a      3d2-     218
  308     O_a      4f2-     224
  309     O_a      4f2-     231
  310     O_a      4f2-     238
  311     O_a      4f2-     245
  312     O_a      4f2-     252
  313     O_a      5g4-     258
  314     O_a      5g2-     260
  315     O_a      5g4-     267
  316     O_a      5g2-     269
  317     O_a      5g4-     276
  318     O_a      5g2-     278
  319     O_a      5g4-     285
  320     O_a      5g2-     287
  321     O_a      6h4-     295
  322     O_a      6h2-     297
  323     O_a      6h4-     306
  324     O_a      6h2-     308
  325     O_a      6h4-     317
  326     O_a      6h2-     319

  Symmetries of electric field:  B1 (2)  B2 (3)  A1 (1)

  Symmetries of magnetic field:  B2 (3)  B1 (2)  A2 (4)


                     .---------------------------------------.
                     | Starting in Integral Section (HERMIT) |
                     `---------------------------------------'



 ***************************************************************************************
 ****************** Output from **INTEGRALS input processing (HERMIT) ******************
 ***************************************************************************************


 - Using defaults, no **INTEGRALS input found

 Default print level:        1

 Calculation of one-electron Hamiltonian integrals.

 Center of mass  (bohr):      0.000000000000      0.000000000000      0.000000000000
 Operator center (bohr):      0.000000000000      0.000000000000      0.000000000000
 Gauge origin    (bohr):      0.000000000000      0.000000000000      0.000000000000
 Dipole origin   (bohr):      0.000000000000      0.000000000000      0.000000000000


     ************************************************************************
     ************************** Output from HERINT **************************
     ************************************************************************



                      Nuclear contribution to dipole moments
                      --------------------------------------

                 au               Debye          C m (/(10**-30)

      z      0.00232354         0.00590585         0.01969980


  Time used in ONEDRV     is       0.13 seconds
  Time used in GABGEN     is       2.50 seconds
  Total CPU  time used in HERMIT:   3.00 seconds
  Total wall time used in HERMIT:   3.00 seconds


                        .----------------------------------.
                        | End of Integral Section (HERMIT) |
                        `----------------------------------'



                   .--------------------------------------------.
                   | Starting in Wave Function Section (SIRIUS) |
                   `--------------------------------------------'


 *** Output from Huckel module :

     Using EWMO model:          T
     Using EHT  model:          F
     Number of Huckel orbitals each symmetry:    6    2    2    0

 EWMO - Energy Weighted Maximum Overlap - is a Huckel type method,
        which normally is better than Extended Huckel Theory.
 Reference: Linderberg and Ohrn, Propagators in Quantum Chemistry (Wiley, 1973)

 Huckel EWMO eigenvalues for symmetry :  1
          -20.685999     -11.349525      -1.578830      -0.796795      -0.456115
           -0.137637

 Huckel EWMO eigenvalues for symmetry :  2
           -0.717188      -0.305912

 Huckel EWMO eigenvalues for symmetry :  3
           -0.717188      -0.305912

 **********************************************************************
 *SIRIUS* a direct, restricted step, second order MCSCF program       *
 **********************************************************************

 
     Date and time (Linux)  : Wed Jan 11 14:17:33 2023
     Host name              : cn023                                   

 Title lines from ".mol" input file:
     blah                                                                    
     blah                                                                    

 Print level on unit LUPRI =   2 is   0
 Print level on unit LUW4  =   2 is   5

@    Restricted, closed shell Hartree-Fock calculation.

@    Time-dependent Hartree-Fock calculation (random phase approximation).
 Fock matrices are calculated directly and in parallel without use of integrals on disk.

 Initial molecular orbitals are obtained according to
 ".MOSTART EWMO  " input option

     Wave function specification
     ============================
@    Wave function type        --- HF ---
@    Number of closed shell electrons          14
@    Number of electrons in active shells       0
@    Total charge of the molecule               0

@    Spin multiplicity and 2 M_S                1         0
@    Total number of symmetries                 4 (point group: C2v)
@    Reference state symmetry                   1 (irrep name : A1 )

     Orbital specifications
     ======================
@    Abelian symmetry species          All |    1    2    3    4
@                                          |  A1   B1   B2   A2 
                                       --- |  ---  ---  ---  ---
@    Total number of orbitals          326 |  116   80   80   50
@    Number of basis functions         326 |  116   80   80   50

      ** Automatic occupation of RHF orbitals **

      -- Initial occupation of symmetries is determined from extended Huckel guess.           
      -- Initial occupation of symmetries is :
@    Occupied SCF orbitals               7 |    5    1    1    0

     Maximum number of Fock   iterations      0
     Maximum number of DIIS   iterations     60
     Maximum number of QC-SCF iterations     60
     Threshold for SCF convergence     1.00D-05

    INFORMATION: Switched to "new" integral transformation (from 1988 ;-) )
    because more than 255 basis functions.


 ***********************************************
 ***** DIIS acceleration of SCF iterations *****
 ***********************************************

 C1-DIIS algorithm; max error vectors =    8

 Automatic occupation of symmetries with  14 electrons.

 Iter     Total energy    Error norm  Delta(E)    SCF occupation
 -----------------------------------------------------------------------------
   1  Screening settings (-IFTHRS, JTDIIS, DIFDEN, times)   -8    1    T  7.28D+00  7.28D+00
@  1  -112.502271360       2.59D+00  -1.13D+02     5   1   1   0
      Virial theorem: -V/T =      2.005847
@    MULPOP   C_a     0.69; O_a    -0.69; 
   1  Level shift: doubly occupied orbital energies shifted by -2.00D-01
 -----------------------------------------------------------------------------
   2  Screening settings (-IFTHRS, JTDIIS, DIFDEN, times)   -8    2    T  7.86D+00  7.86D+00
@  2  -112.776335658       5.40D-01  -2.74D-01     5   1   1   0
      Virial theorem: -V/T =      1.998260
@    MULPOP   C_a     0.61; O_a    -0.61; 
   2  Level shift: doubly occupied orbital energies shifted by -5.00D-02
 -----------------------------------------------------------------------------
   3  Screening settings (-IFTHRS, JTDIIS, DIFDEN, times)   -8    3    T  7.79D+00  7.79D+00
@  3  -112.789263936       1.27D-01  -1.29D-02     5   1   1   0
      Virial theorem: -V/T =      2.000897
@    MULPOP   C_a     0.59; O_a    -0.59; 
   3  Level shift: doubly occupied orbital energies shifted by -1.25D-02
 -----------------------------------------------------------------------------
   4  Screening settings (-IFTHRS, JTDIIS, DIFDEN, times)  -12    4    F  7.86D+00  7.88D+00
@  4  -112.790487937       5.81D-02  -1.22D-03     5   1   1   0
      Virial theorem: -V/T =      2.001765
@    MULPOP   C_a     0.56; O_a    -0.56; 
 -----------------------------------------------------------------------------
   5  Screening settings (-IFTHRS, JTDIIS, DIFDEN, times)  -12    5    T  7.86D+00  7.86D+00
@  5  -112.790655256       2.13D-02  -1.67D-04     5   1   1   0
      Virial theorem: -V/T =      2.001145
@    MULPOP   C_a     0.58; O_a    -0.58; 
 -----------------------------------------------------------------------------
   6  Screening settings (-IFTHRS, JTDIIS, DIFDEN, times)  -12    6    T  7.90D+00  7.91D+00
@  6  -112.790680224       3.09D-03  -2.50D-05     5   1   1   0
      Virial theorem: -V/T =      2.001323
@    MULPOP   C_a     0.58; O_a    -0.58; 
 -----------------------------------------------------------------------------
   7  Screening settings (-IFTHRS, JTDIIS, DIFDEN, times)  -12    7    T  7.86D+00  7.86D+00
@  7  -112.790681065       5.17D-04  -8.42D-07     5   1   1   0
      Virial theorem: -V/T =      2.001330
@    MULPOP   C_a     0.58; O_a    -0.58; 
 -----------------------------------------------------------------------------
   8  Screening settings (-IFTHRS, JTDIIS, DIFDEN, times)  -12    8    T  7.83D+00  7.83D+00
@  8  -112.790681093       1.15D-04  -2.74D-08     5   1   1   0
      Virial theorem: -V/T =      2.001332
@    MULPOP   C_a     0.58; O_a    -0.58; 
 -----------------------------------------------------------------------------
   9  Screening settings (-IFTHRS, JTDIIS, DIFDEN, times)  -12    9    T  7.83D+00  7.83D+00
@  9  -112.790681094       1.22D-05  -1.34D-09     5   1   1   0
      Virial theorem: -V/T =      2.001332
@    MULPOP   C_a     0.58; O_a    -0.58; 
 -----------------------------------------------------------------------------
  10  Screening settings (-IFTHRS, JTDIIS, DIFDEN, times)  -12   10    T  7.79D+00  7.79D+00
@ 10  -112.790681094       2.73D-06  -2.25D-11     5   1   1   0

@ *** DIIS converged in  10 iterations !
@     Converged SCF energy, gradient:   -112.790681093927    2.73D-06
    - total time used in SIRFCK :              0.00 seconds


 *** SCF orbital energy analysis ***

 Only the 20 lowest virtual orbital energies printed in each symmetry.

 Number of electrons :   14
 Orbital occupations :    5    1    1    0

 Sym       Hartree-Fock orbital energies

1 A1    -20.66457497   -11.36007707    -1.52151846    -0.80453222    -0.55491502
          0.01564184     0.01959087     0.04585044     0.06677378     0.07268048
          0.07987314     0.10495019     0.16328018     0.17005379     0.17017427
          0.20880829     0.23089208     0.26014942     0.27339624     0.30359631
          0.35775189     0.44348039     0.45838560     0.46805863     0.51020211

2 B1     -0.64036418     0.01835813     0.04586484     0.07057507     0.10613035
          0.13386330     0.17177246     0.21546344     0.22645983     0.26289674
          0.31945610     0.42718774     0.43220880     0.47501444     0.63403810
          0.64070758     0.66238608     0.79255475     0.84020453     0.85057617
          1.11030536

3 B2     -0.64036418     0.01835813     0.04586484     0.07057507     0.10613035
          0.13386330     0.17177246     0.21546344     0.22645983     0.26289674
          0.31945610     0.42718774     0.43220880     0.47501444     0.63403810
          0.64070758     0.66238608     0.79255475     0.84020453     0.85057617
          1.11030536

4 A2      0.07268048     0.17017427     0.23089208     0.30359631     0.45838560
          0.54880340     0.68190337     0.73181533     0.80513729     1.01221324
          1.20555815     1.24612146     1.36138709     1.60062202     1.80360469
          1.80548457     1.91581143     1.99200668     2.27058350     2.46316401

    E(LUMO) :     0.01564184 au (symmetry 1)
  - E(HOMO) :    -0.55491502 au (symmetry 1)
  ------------------------------------------
    gap     :     0.57055686 au

 --- Writing SIRIFC interface file

 CPU and wall time for SCF :      78.071      78.128


                       .-----------------------------------.
                       | --- Final results from SIRIUS --- |
                       `-----------------------------------'


@    Spin multiplicity:           1
@    Spatial symmetry:            1 ( irrep  A1  in C2v )
@    Total charge of molecule:    0

@    Final HF energy:            -112.790681093927                 
@    Nuclear repulsion:            22.514071294559
@    Electronic energy:          -135.304752388486

@    Final gradient norm:           0.000002731516

 
     Date and time (Linux)  : Wed Jan 11 14:18:51 2023
     Host name              : cn023                                   

File label for MO orbitals:  11Jan23   FOCKDIIS

 (Only coefficients > 0.0100 are printed.)

 Molecular orbitals for symmetry species 1  (A1 )
 ------------------------------------------------

    Orbital         1        2        3        4        5        6        7
   1 C_a :1s     0.0002   1.0003  -0.0092  -0.0010   0.0020   0.0052   0.0015
   2 C_a :1s     0.0009   0.0032   0.4559   0.5743   0.6110   0.0669  -0.0054
   3 C_a :1s     0.0003   0.0006   0.0065   0.0037  -0.0025   0.0102   0.0064
   4 C_a :1s    -0.0008  -0.0047  -0.0488  -0.0290   0.0079   0.0823  -0.0324
   5 C_a :1s    -0.0047   0.0012  -0.1904  -0.1028   0.0583  -1.0663  -0.3987
   6 C_a :1s    -0.0028   0.0038  -0.1250  -0.0679   0.1234  -5.4705  -1.2005
   7 C_a :1s    -0.0006   0.0016  -0.0186   0.0043   0.0327 -11.7974  -3.0469
   8 C_a :1s    -0.0000   0.0002  -0.0023   0.0001   0.0023  -6.9794  -2.2649
   9 C_a :2pz    0.0005   0.0147   0.3471   0.2024  -0.7121  -0.0469   0.0045
  10 C_a :2pz   -0.0001  -0.0047  -0.0125  -0.0060   0.0058   0.0257  -0.0049
  11 C_a :2pz   -0.0019  -0.0036  -0.0638  -0.0350   0.0373  -0.2800  -0.0888
  12 C_a :2pz   -0.0021  -0.0013  -0.0881  -0.0434   0.0799  -1.4398  -0.0174
  13 C_a :2pz   -0.0004  -0.0002  -0.0440  -0.0163   0.0677  -2.7660  -0.0309
  14 C_a :2pz    0.0001   0.0003  -0.0009   0.0023   0.0019  -2.4229  -0.7805
  15 C_a :2pz    0.0000  -0.0000  -0.0002  -0.0000  -0.0001   0.3664  -2.1002
  18 C_a :3d0   -0.0001   0.0006   0.0113   0.0061  -0.0115  -0.0007  -0.0048
  20 C_a :3d0   -0.0007   0.0013   0.0237   0.0160  -0.0222  -0.1581   0.0060
  22 C_a :3d0   -0.0008   0.0013   0.0192   0.0123  -0.0116  -0.5263   0.2041
  24 C_a :3d0   -0.0002   0.0003   0.0015   0.0032   0.0001  -0.5859   0.2589
  26 C_a :3d0    0.0000   0.0000   0.0000   0.0004  -0.0001  -0.0074  -0.3542
  30 C_a :4f0   -0.0001   0.0004   0.0049   0.0035  -0.0024  -0.0226   0.0018
  32 C_a :4f0   -0.0002   0.0001   0.0092   0.0064  -0.0028  -0.0762   0.0615
  34 C_a :4f0   -0.0002   0.0001   0.0030  -0.0006  -0.0018  -0.1084   0.1519
  36 C_a :4f0   -0.0000   0.0000  -0.0004   0.0005  -0.0001  -0.0425  -0.0083
  41 C_a :5g0    0.0000   0.0000   0.0020   0.0012  -0.0012  -0.0123   0.0069
  44 C_a :5g0   -0.0000  -0.0001   0.0018   0.0011  -0.0006  -0.0041   0.0279
  47 C_a :5g0   -0.0001   0.0001   0.0004  -0.0008  -0.0005  -0.0106   0.0361
  59 O_a :1s     1.0004  -0.0003  -0.0048  -0.0033  -0.0002  -0.0001   0.0012
  60 O_a :1s     0.0021   0.0016   0.8345  -0.4702  -0.0643   0.0188   0.0236
  62 O_a :1s    -0.0014  -0.0005  -0.0173  -0.0044  -0.0002  -0.0320  -0.0131
  63 O_a :1s     0.0018  -0.0026  -0.0601  -0.0610   0.0194   0.3710  -0.2411
  64 O_a :1s     0.0038  -0.0046  -0.0099  -0.0986   0.0415   3.1721   0.1533
  65 O_a :1s     0.0015  -0.0026   0.0420  -0.0138  -0.0058   9.1598   2.2195
  66 O_a :1s     0.0002  -0.0006   0.0096   0.0006  -0.0092  12.3506   4.4681
  67 O_a :2pz   -0.0082  -0.0015  -0.2401  -0.7399   0.3764   0.0224   0.0092
  69 O_a :2pz    0.0022   0.0007   0.0030   0.0127  -0.0051  -0.0616   0.0345
  70 O_a :2pz    0.0006   0.0002  -0.0092   0.0264  -0.0145  -0.5587  -0.1685
  71 O_a :2pz   -0.0001   0.0000  -0.0170   0.0169  -0.0188  -1.3390  -0.7954
  72 O_a :2pz   -0.0004   0.0001  -0.0108  -0.0054   0.0039  -2.4951  -1.0723
  73 O_a :2pz   -0.0001   0.0000  -0.0002  -0.0004   0.0006  -1.4727   1.0143
  78 O_a :3d0    0.0004   0.0003   0.0211   0.0188  -0.0113   0.0368   0.0016
  80 O_a :3d0    0.0008   0.0016   0.0354   0.0279  -0.0084   0.1133   0.0762
  82 O_a :3d0    0.0005   0.0007   0.0158   0.0166   0.0072   0.1486   0.0983
  84 O_a :3d0    0.0001   0.0000   0.0022   0.0014   0.0005   0.2689   0.1665
  90 O_a :4f0   -0.0002  -0.0009  -0.0118  -0.0087   0.0050  -0.0127  -0.0076
  92 O_a :4f0   -0.0002  -0.0008  -0.0067  -0.0060  -0.0023  -0.0050   0.0106
  94 O_a :4f0   -0.0001  -0.0001  -0.0014  -0.0019  -0.0020  -0.0270   0.0168

    Orbital         8        9       10       11       12       13       14
   1 C_a :1s     0.0015   0.0102   0.0000   0.0015   0.0090  -0.0155  -0.0188
   2 C_a :1s    -0.0353  -0.0271   0.0000  -0.0642   0.1050  -0.1806  -0.0799
   3 C_a :1s     0.0083   0.0287   0.0000  -0.0044   0.0325  -0.0314  -0.0630
   4 C_a :1s    -0.0116   0.1114   0.0000   0.2143  -0.1997  -0.3014   0.2486
   5 C_a :1s    -1.3703  -2.7326  -0.0000   0.1699  -3.6988   4.0440   4.6763
   6 C_a :1s    -2.2358 -12.7515  -0.0000  -4.5106  -5.8577  19.0435  15.9384
   7 C_a :1s    -1.5574 -27.8216  -0.0000 -10.1883  -3.3744  37.6333  29.1007
   8 C_a :1s     2.2873 -11.4278  -0.0000  -3.3673   4.1171   9.1572   6.4406
   9 C_a :2pz    0.0229   0.0731   0.0000   0.0376  -0.0164   0.0960   0.0421
  10 C_a :2pz    0.0013   0.0429   0.0000   0.0523  -0.0258  -0.0888   0.0211
  11 C_a :2pz   -0.2000  -0.6805  -0.0000  -0.1102  -0.6108   0.9158   1.0973
  12 C_a :2pz    0.0157  -2.8711  -0.0000  -2.4539  -0.2118   4.0363   2.7459
  13 C_a :2pz    2.2897  -5.4039  -0.0000  -6.3846   4.5045   6.9063   4.3569
  14 C_a :2pz    5.4417  -5.0278  -0.0000  -5.8153  10.7677   5.3602   1.6962
  15 C_a :2pz    2.5939  -0.7437  -0.0000   0.9840   2.1468   0.2667   0.5568
  18 C_a :3d0   -0.0054  -0.0077   0.0000   0.0194  -0.0173   0.0061   0.0284
  20 C_a :3d0   -0.0284  -0.3080  -0.0000  -0.2599  -0.1002   0.4304   0.2931
  21 C_a :3d2+   0.0000  -0.0000   0.0186   0.0000  -0.0000  -0.0000  -0.0000
  22 C_a :3d0    0.2531  -0.7781  -0.0000  -1.6450   0.6448   1.2926  -0.2529
  23 C_a :3d2+   0.0000  -0.0000   0.0953   0.0000  -0.0000  -0.0000  -0.0000
  24 C_a :3d0    0.6111  -0.8113  -0.0000  -2.1705   2.0237   2.3579  -2.0588
  25 C_a :3d2+   0.0000  -0.0000  -0.5598   0.0000  -0.0000  -0.0000  -0.0000
  26 C_a :3d0    1.5391  -0.3482  -0.0000   0.1963   4.3784   1.0920  -1.1870
  27 C_a :3d2+  -0.0000  -0.0000  -1.7198  -0.0000   0.0000  -0.0000  -0.0000
  30 C_a :4f0   -0.0028  -0.0424   0.0000  -0.0406  -0.0071   0.0638   0.0296
  32 C_a :4f0    0.0466  -0.0737  -0.0000  -0.3374   0.0929   0.1253  -0.1268
  33 C_a :4f2+   0.0000  -0.0000   0.0701   0.0000  -0.0000  -0.0000  -0.0000
  34 C_a :4f0    0.0144  -0.0283  -0.0000  -0.6365   0.1042   0.3194  -0.6629
  35 C_a :4f2+   0.0000  -0.0000   0.1604   0.0000  -0.0000  -0.0000  -0.0000
  36 C_a :4f0    0.0476  -0.0899  -0.0000   0.0040   0.5443   0.8738  -0.8847
  37 C_a :4f2+  -0.0000  -0.0000  -0.5028   0.0000  -0.0000  -0.0000  -0.0000
  41 C_a :5g0    0.0074  -0.0151   0.0000  -0.0452   0.0143   0.0259  -0.0099
  44 C_a :5g0    0.0052   0.0259   0.0000  -0.0939  -0.0005  -0.0402  -0.0803
  45 C_a :5g2+   0.0000  -0.0000   0.0638   0.0000  -0.0000  -0.0000  -0.0000
  47 C_a :5g0   -0.0149   0.0216  -0.0000  -0.1149  -0.0318   0.0598  -0.1694
  48 C_a :5g2+  -0.0000  -0.0000   0.0430   0.0000  -0.0000  -0.0000  -0.0000
  53 C_a :6h0    0.0028  -0.0007   0.0000  -0.0132   0.0056  -0.0004  -0.0060
  56 C_a :6h0   -0.0064   0.0178   0.0000  -0.0206  -0.0221  -0.0202  -0.0320
  57 C_a :6h2+   0.0000  -0.0000   0.0296   0.0000  -0.0000  -0.0000  -0.0000
  60 O_a :1s     0.0184  -0.0643  -0.0000   0.0226  -0.0006  -0.0970  -0.1083
  61 O_a :1s     0.0056   0.0042  -0.0000  -0.0108   0.0160  -0.0040  -0.0179
  62 O_a :1s    -0.0337  -0.0840  -0.0000   0.0034  -0.0949   0.1119   0.1367
  63 O_a :1s    -0.1020   0.4029   0.0000   1.3955  -0.2573  -0.7636   0.4666
  64 O_a :1s     0.0150   6.4099   0.0000   5.1081   0.5771  -9.5450  -6.1207
  65 O_a :1s    -0.5121  21.0851   0.0000   9.9299   0.2481 -30.9661 -24.9208
  66 O_a :1s    -1.1878  27.3923   0.0000   6.8902  -1.1739 -28.1137 -21.5987
  67 O_a :2pz    0.0019  -0.0551   0.0000  -0.0197  -0.0174  -0.0253  -0.0762
  68 O_a :2pz    0.0025   0.0107  -0.0000   0.0158   0.0029  -0.0206   0.0009
  69 O_a :2pz    0.0138  -0.0740  -0.0000  -0.2071   0.0585   0.1515  -0.0875
  70 O_a :2pz   -0.2082  -1.3275  -0.0000  -0.3648  -0.7683   1.7138   2.0553
  71 O_a :2pz   -1.4584  -3.8224  -0.0000   0.9251  -4.2092   5.0333   7.5493
  72 O_a :2pz   -4.5131  -6.7983   0.0000   2.2114 -10.8055   9.8744  11.8672
  73 O_a :2pz   -5.4569  -1.2306   0.0000  -0.2163  -6.0648   1.6423   0.6804
  76 O_a :3d0   -0.0002  -0.0064   0.0000   0.0008  -0.0022   0.0053   0.0149
  78 O_a :3d0   -0.0003   0.0736  -0.0000   0.0576   0.0068  -0.1076  -0.0659
  80 O_a :3d0    0.1713   0.3343  -0.0000  -0.1165   0.5918  -0.3852  -0.8396
  81 O_a :3d2+  -0.0000   0.0000  -0.1657  -0.0000   0.0000   0.0000   0.0000
  82 O_a :3d0    0.7691   0.4868   0.0000  -0.5471   1.9000  -1.1339  -1.0915
  83 O_a :3d2+  -0.0000   0.0000  -0.0831  -0.0000   0.0000   0.0000   0.0000
  84 O_a :3d0    1.4354   0.8237   0.0000  -1.3176   1.7632  -3.7427   1.0765
  85 O_a :3d2+   0.0000   0.0000   1.4634  -0.0000   0.0000   0.0000   0.0000
  88 O_a :4f0   -0.0008  -0.0075   0.0000  -0.0049   0.0005   0.0135   0.0026
  90 O_a :4f0   -0.0133  -0.0371   0.0000   0.0036  -0.0737   0.0243   0.1186
  91 O_a :4f2+   0.0000  -0.0000   0.0323   0.0000  -0.0000  -0.0000  -0.0000
  92 O_a :4f0   -0.0849  -0.0074  -0.0000   0.0079  -0.2801   0.0291   0.1134
  93 O_a :4f2+   0.0000  -0.0000   0.0438   0.0000  -0.0000  -0.0000  -0.0000
  94 O_a :4f0   -0.2683  -0.0439  -0.0000   0.1355  -0.2842   0.6705  -0.5589
  95 O_a :4f2+   0.0000  -0.0000  -0.1944   0.0000  -0.0000  -0.0000  -0.0000
 102 O_a :5g0   -0.0074  -0.0064  -0.0000   0.0185   0.0152   0.0322  -0.0258
 103 O_a :5g2+  -0.0000   0.0000  -0.0155  -0.0000   0.0000   0.0000   0.0000
 105 O_a :5g0    0.0171   0.0067   0.0000   0.0057   0.0069  -0.0670   0.0617
 106 O_a :5g2+  -0.0000   0.0000   0.0455  -0.0000   0.0000   0.0000   0.0000

    Orbital        15
  21 C_a :3d2+  -0.0419
  23 C_a :3d2+  -1.1746
  25 C_a :3d2+  -4.4121
  27 C_a :3d2+  -1.7136
  33 C_a :4f2+  -0.1646
  35 C_a :4f2+  -0.8696
  37 C_a :4f2+  -1.3779
  42 C_a :5g2+  -0.0228
  45 C_a :5g2+  -0.0337
  48 C_a :5g2+  -0.1912
  54 C_a :6h2+  -0.0103
  79 O_a :3d2+  -0.0102
  81 O_a :3d2+   0.2525
  83 O_a :3d2+   2.2330
  85 O_a :3d2+   5.4362
  91 O_a :4f2+  -0.0426
  93 O_a :4f2+  -0.3604
  95 O_a :4f2+  -1.2793
 103 O_a :5g2+   0.0108
 106 O_a :5g2+   0.1696
 115 O_a :6h2+  -0.0154

 Molecular orbitals for symmetry species 2  (B1 )
 ------------------------------------------------

    Orbital         1        2        3        4        5        6        7
   1 C_a :2px   -0.4460   0.0118   0.0115  -0.1557  -0.0182   0.5235   0.0537
   2 C_a :2px    0.0037   0.0017  -0.0109   0.0155  -0.0261   0.0129   0.0318
   3 C_a :2px    0.0330  -0.0002   0.1485  -0.1157   0.4230  -0.1441  -0.3760
   4 C_a :2px    0.0673  -0.1653   0.9558  -1.3250   1.9540  -1.7106  -1.9373
   5 C_a :2px    0.0551  -0.3333   2.6287  -3.4076   4.8907  -4.5020  -4.3868
   6 C_a :2px    0.0064   0.3660   5.5153  -4.0920  10.2277  -4.5705  -5.2709
   7 C_a :2px    0.0005   2.1868   2.8948   0.8119   2.4310   0.1807   0.2721
   9 C_a :3d1+  -0.0141   0.0022   0.0001   0.0130   0.0036   0.0058   0.0026
  10 C_a :3d1+  -0.0233  -0.0243   0.1355  -0.1605   0.3417  -0.2235  -0.4268
  11 C_a :3d1+  -0.0222  -0.1939   0.4301  -0.9124   1.0057  -1.1040  -2.0363
  12 C_a :3d1+   0.0012  -0.2564   0.4374  -1.1211   1.5930  -1.0809  -4.5761
  13 C_a :3d1+   0.0020   0.3650   1.4028   0.1600   4.0624  -0.0818  -2.1028
  16 C_a :4f1+  -0.0037  -0.0009   0.0205  -0.0157   0.0532  -0.0242  -0.0529
  18 C_a :4f1+  -0.0084  -0.0493   0.0880  -0.2127   0.2036  -0.2500  -0.4650
  20 C_a :4f1+  -0.0067  -0.1271  -0.0084  -0.3756   0.0587  -0.3455  -1.1212
  22 C_a :4f1+   0.0013   0.0135   0.0123   0.0916   0.4917   0.2995  -1.2464
  26 C_a :5g1+  -0.0013  -0.0029   0.0129  -0.0184   0.0294  -0.0213  -0.0425
  28 C_a :5g1+  -0.0030  -0.0231   0.0085  -0.0776   0.0140  -0.0849  -0.1426
  30 C_a :5g1+  -0.0016  -0.0295  -0.0245  -0.0703  -0.0399  -0.0425  -0.2455
  38 C_a :6h1+  -0.0011  -0.0091  -0.0066  -0.0233  -0.0175  -0.0207  -0.0467
  41 O_a :2px   -0.8006  -0.0364   0.0358   0.1758  -0.0646  -0.3604  -0.1652
  43 O_a :2px   -0.0005   0.0008  -0.0065   0.0091   0.0038   0.0144  -0.0245
  44 O_a :2px    0.0004   0.1699  -0.2715   0.7420  -0.7352   0.7566   1.7618
  45 O_a :2px   -0.0083   0.3865  -1.4490   2.4545  -3.3099   2.8286   5.1493
  46 O_a :2px   -0.0140   0.0817  -4.3508   4.1705  -9.1629   5.6441   7.6489
  47 O_a :2px   -0.0022  -1.6796  -6.2165   0.6343  -6.9984   1.2297   0.6164
  49 O_a :3d1+   0.0062   0.0011  -0.0020   0.0050  -0.0052   0.0010   0.0136
  50 O_a :3d1+   0.0237  -0.0072   0.0139  -0.0320   0.0399  -0.0464  -0.0779
  51 O_a :3d1+   0.0338  -0.0452   0.2417  -0.3230   0.6255  -0.4102  -0.7974
  52 O_a :3d1+   0.0188   0.0027   0.7900  -0.6504   1.5219  -1.1183  -0.4467
  53 O_a :3d1+   0.0017  -0.0336   1.2520  -1.3097   0.9645  -2.5918   2.2261
  58 O_a :4f1+  -0.0120   0.0045  -0.0479   0.0507  -0.1336   0.0622   0.1495
  60 O_a :4f1+  -0.0089  -0.0125  -0.1175   0.0558  -0.2832   0.1079   0.0927
  62 O_a :4f1+  -0.0017  -0.0273  -0.2582   0.1544  -0.1773   0.4154  -0.8079
  68 O_a :5g1+   0.0040   0.0017   0.0132  -0.0040   0.0541  -0.0034  -0.0532
  70 O_a :5g1+   0.0013   0.0016   0.0208  -0.0153   0.0069  -0.0380   0.0769

    Orbital         8        9       10       11
   1 C_a :2px   -0.0000  -0.4579   0.0061  -0.3377
   2 C_a :2px    0.0000   0.0425   0.0185   0.0338
   3 C_a :2px   -0.0000  -0.7673  -0.0023   0.5657
   4 C_a :2px    0.0000  -5.2963   1.5593   0.8941
   5 C_a :2px    0.0000 -12.6502   0.7691  -3.1574
   6 C_a :2px   -0.0000 -10.3596  -5.3711  -2.2608
   7 C_a :2px    0.0000  -0.5664  -1.3080   0.4592
   9 C_a :3d1+  -0.0000   0.0078  -0.0192   0.0421
  10 C_a :3d1+  -0.0000  -0.6618   0.0616   0.0388
  11 C_a :3d1+   0.0000  -2.1950   0.7883  -2.2702
  12 C_a :3d1+  -0.0000  -0.6859  -0.7018  -7.8897
  13 C_a :3d1+  -0.0000  -1.7642  -2.8626  -0.5902
  16 C_a :4f1+   0.0000  -0.0860  -0.0224   0.0236
  18 C_a :4f1+  -0.0000  -0.4440   0.1690  -0.6045
  19 C_a :4f3+   0.1275   0.0000  -0.0000   0.0000
  20 C_a :4f1+   0.0000   0.0791   0.4812  -2.6040
  21 C_a :4f3+   0.4425   0.0000  -0.0000   0.0000
  22 C_a :4f1+  -0.0000   1.0479  -2.2020  -2.5814
  23 C_a :4f3+  -1.3232  -0.0000   0.0000  -0.0000
  26 C_a :5g1+   0.0000  -0.0439  -0.0242  -0.0631
  28 C_a :5g1+  -0.0000  -0.1149   0.2008  -0.2105
  29 C_a :5g3+   0.1935   0.0000  -0.0000   0.0000
  30 C_a :5g1+  -0.0000   0.2192  -0.0354  -0.8758
  31 C_a :5g3+   0.0223   0.0000  -0.0000   0.0000
  32 C_a :6h1+   0.0000  -0.0032  -0.0035  -0.0134
  35 C_a :6h1+   0.0000  -0.0164   0.0090  -0.0014
  36 C_a :6h3+   0.0116   0.0000  -0.0000   0.0000
  38 C_a :6h1+  -0.0000   0.0149   0.0683  -0.1309
  39 C_a :6h3+   0.0743   0.0000  -0.0000   0.0000
  41 O_a :2px    0.0000   0.1483  -0.0754   0.2811
  42 O_a :2px   -0.0000  -0.0125  -0.0106  -0.0069
  43 O_a :2px   -0.0000   0.0091   0.0274   0.0576
  44 O_a :2px   -0.0000   1.5451  -0.8276   1.9232
  45 O_a :2px   -0.0000   6.8886  -1.1115   5.3585
  46 O_a :2px    0.0000  15.5748   3.9800   3.3636
  47 O_a :2px    0.0000   3.6091   3.5144  -0.3825
  49 O_a :3d1+  -0.0000   0.0123  -0.0025   0.0141
  50 O_a :3d1+   0.0000  -0.0507   0.0010  -0.1109
  51 O_a :3d1+  -0.0000  -1.2060   0.1412  -0.0770
  52 O_a :3d1+   0.0000  -4.3508   0.8500   3.5159
  53 O_a :3d1+  -0.0000  -6.5199   1.6810   3.3734
  56 O_a :4f1+   0.0000  -0.0038   0.0033   0.0179
  58 O_a :4f1+   0.0000   0.2246   0.0149  -0.0326
  59 O_a :4f3+  -0.0162  -0.0000   0.0000  -0.0000
  60 O_a :4f1+  -0.0000   0.6933  -0.1380  -0.9298
  61 O_a :4f3+  -0.3953  -0.0000   0.0000  -0.0000
  62 O_a :4f1+  -0.0000   1.4529  -0.2856  -1.7209
  63 O_a :4f3+   0.2545  -0.0000   0.0000  -0.0000
  66 O_a :5g1+  -0.0000  -0.0163  -0.0080  -0.0096
  68 O_a :5g1+  -0.0000  -0.0857   0.0122   0.1250
  69 O_a :5g3+   0.0590   0.0000  -0.0000   0.0000
  70 O_a :5g1+   0.0000  -0.1397   0.0896   0.2297
  71 O_a :5g3+   0.1556   0.0000  -0.0000   0.0000
  78 O_a :6h1+   0.0000   0.0263  -0.0297  -0.0471
  79 O_a :6h3+  -0.0417  -0.0000   0.0000  -0.0000

 Molecular orbitals for symmetry species 3  (B2 )
 ------------------------------------------------

    Orbital         1        2        3        4        5        6        7
   1 C_a :2py   -0.4460  -0.0118  -0.0115  -0.1557  -0.0182  -0.5235  -0.0537
   2 C_a :2py    0.0037  -0.0017   0.0109   0.0155  -0.0261  -0.0129  -0.0318
   3 C_a :2py    0.0330   0.0002  -0.1485  -0.1157   0.4230   0.1441   0.3760
   4 C_a :2py    0.0673   0.1653  -0.9558  -1.3250   1.9540   1.7106   1.9373
   5 C_a :2py    0.0551   0.3333  -2.6287  -3.4076   4.8907   4.5020   4.3868
   6 C_a :2py    0.0064  -0.3660  -5.5153  -4.0920  10.2277   4.5705   5.2709
   7 C_a :2py    0.0005  -2.1868  -2.8948   0.8119   2.4310  -0.1807  -0.2721
   9 C_a :3d1-  -0.0141  -0.0022  -0.0001   0.0130   0.0036  -0.0058  -0.0026
  10 C_a :3d1-  -0.0233   0.0243  -0.1355  -0.1605   0.3417   0.2235   0.4268
  11 C_a :3d1-  -0.0222   0.1939  -0.4301  -0.9124   1.0057   1.1040   2.0363
  12 C_a :3d1-   0.0012   0.2564  -0.4374  -1.1211   1.5930   1.0809   4.5761
  13 C_a :3d1-   0.0020  -0.3650  -1.4028   0.1600   4.0624   0.0818   2.1028
  17 C_a :4f1-  -0.0037   0.0009  -0.0205  -0.0157   0.0532   0.0242   0.0529
  19 C_a :4f1-  -0.0084   0.0493  -0.0880  -0.2127   0.2036   0.2500   0.4650
  21 C_a :4f1-  -0.0067   0.1271   0.0084  -0.3756   0.0587   0.3455   1.1212
  23 C_a :4f1-   0.0013  -0.0135  -0.0123   0.0916   0.4917  -0.2995   1.2464
  27 C_a :5g1-  -0.0013   0.0029  -0.0129  -0.0184   0.0294   0.0213   0.0425
  29 C_a :5g1-  -0.0030   0.0231  -0.0085  -0.0776   0.0140   0.0849   0.1426
  31 C_a :5g1-  -0.0016   0.0295   0.0245  -0.0703  -0.0399   0.0425   0.2455
  40 C_a :6h1-  -0.0011   0.0091   0.0066  -0.0233  -0.0175   0.0207   0.0467
  41 O_a :2py   -0.8006   0.0364  -0.0358   0.1758  -0.0646   0.3604   0.1652
  43 O_a :2py   -0.0005  -0.0008   0.0065   0.0091   0.0038  -0.0144   0.0245
  44 O_a :2py    0.0004  -0.1699   0.2715   0.7420  -0.7352  -0.7566  -1.7618
  45 O_a :2py   -0.0083  -0.3865   1.4490   2.4545  -3.3099  -2.8286  -5.1493
  46 O_a :2py   -0.0140  -0.0817   4.3508   4.1705  -9.1629  -5.6441  -7.6489
  47 O_a :2py   -0.0022   1.6796   6.2165   0.6343  -6.9984  -1.2297  -0.6164
  49 O_a :3d1-   0.0062  -0.0011   0.0020   0.0050  -0.0052  -0.0010  -0.0136
  50 O_a :3d1-   0.0237   0.0072  -0.0139  -0.0320   0.0399   0.0464   0.0779
  51 O_a :3d1-   0.0338   0.0452  -0.2417  -0.3230   0.6255   0.4102   0.7974
  52 O_a :3d1-   0.0188  -0.0027  -0.7900  -0.6504   1.5219   1.1183   0.4467
  53 O_a :3d1-   0.0017   0.0336  -1.2520  -1.3097   0.9645   2.5918  -2.2261
  59 O_a :4f1-  -0.0120  -0.0045   0.0479   0.0507  -0.1336  -0.0622  -0.1495
  61 O_a :4f1-  -0.0089   0.0125   0.1175   0.0558  -0.2832  -0.1079  -0.0927
  63 O_a :4f1-  -0.0017   0.0273   0.2582   0.1544  -0.1773  -0.4154   0.8079
  69 O_a :5g1-   0.0040  -0.0017  -0.0132  -0.0040   0.0541   0.0034   0.0532
  71 O_a :5g1-   0.0013  -0.0016  -0.0208  -0.0153   0.0069   0.0380  -0.0769

    Orbital         8        9       10       11
   1 C_a :2py    0.0000  -0.4579  -0.0061  -0.3377
   2 C_a :2py   -0.0000   0.0425  -0.0185   0.0338
   3 C_a :2py   -0.0000  -0.7673   0.0023   0.5657
   4 C_a :2py   -0.0000  -5.2963  -1.5593   0.8941
   5 C_a :2py   -0.0000 -12.6502  -0.7691  -3.1574
   6 C_a :2py    0.0000 -10.3596   5.3711  -2.2608
   7 C_a :2py    0.0000  -0.5664   1.3080   0.4592
   9 C_a :3d1-   0.0000   0.0078   0.0192   0.0421
  10 C_a :3d1-   0.0000  -0.6618  -0.0616   0.0388
  11 C_a :3d1-  -0.0000  -2.1950  -0.7883  -2.2702
  12 C_a :3d1-   0.0000  -0.6859   0.7018  -7.8897
  13 C_a :3d1-   0.0000  -1.7642   2.8626  -0.5902
  17 C_a :4f1-  -0.0000  -0.0860   0.0224   0.0236
  18 C_a :4f3-   0.1275  -0.0000  -0.0000  -0.0000
  19 C_a :4f1-   0.0000  -0.4440  -0.1690  -0.6045
  20 C_a :4f3-   0.4425  -0.0000   0.0000  -0.0000
  21 C_a :4f1-  -0.0000   0.0791  -0.4812  -2.6040
  22 C_a :4f3-  -1.3232   0.0000   0.0000   0.0000
  23 C_a :4f1-   0.0000   1.0479   2.2020  -2.5814
  27 C_a :5g1-  -0.0000  -0.0439   0.0242  -0.0631
  28 C_a :5g3-   0.1935  -0.0000  -0.0000  -0.0000
  29 C_a :5g1-   0.0000  -0.1149  -0.2008  -0.2105
  30 C_a :5g3-   0.0223  -0.0000   0.0000   0.0000
  31 C_a :5g1-   0.0000   0.2192   0.0354  -0.8758
  34 C_a :6h1-  -0.0000  -0.0032   0.0035  -0.0134
  36 C_a :6h3-   0.0116  -0.0000  -0.0000  -0.0000
  37 C_a :6h1-  -0.0000  -0.0164  -0.0090  -0.0014
  39 C_a :6h3-   0.0743  -0.0000   0.0000  -0.0000
  40 C_a :6h1-   0.0000   0.0149  -0.0683  -0.1309
  41 O_a :2py   -0.0000   0.1483   0.0754   0.2811
  42 O_a :2py    0.0000  -0.0125   0.0106  -0.0069
  43 O_a :2py    0.0000   0.0091  -0.0274   0.0576
  44 O_a :2py    0.0000   1.5451   0.8276   1.9232
  45 O_a :2py    0.0000   6.8886   1.1115   5.3585
  46 O_a :2py   -0.0000  15.5748  -3.9800   3.3636
  47 O_a :2py   -0.0000   3.6091  -3.5144  -0.3825
  49 O_a :3d1-   0.0000   0.0123   0.0025   0.0141
  50 O_a :3d1-  -0.0000  -0.0507  -0.0010  -0.1109
  51 O_a :3d1-   0.0000  -1.2060  -0.1412  -0.0770
  52 O_a :3d1-  -0.0000  -4.3508  -0.8500   3.5159
  53 O_a :3d1-   0.0000  -6.5199  -1.6810   3.3734
  57 O_a :4f1-  -0.0000  -0.0038  -0.0033   0.0179
  58 O_a :4f3-  -0.0162   0.0000   0.0000   0.0000
  59 O_a :4f1-  -0.0000   0.2246  -0.0149  -0.0326
  60 O_a :4f3-  -0.3953   0.0000  -0.0000   0.0000
  61 O_a :4f1-   0.0000   0.6933   0.1380  -0.9298
  62 O_a :4f3-   0.2545   0.0000  -0.0000  -0.0000
  63 O_a :4f1-   0.0000   1.4529   0.2856  -1.7209
  67 O_a :5g1-   0.0000  -0.0163   0.0080  -0.0096
  68 O_a :5g3-   0.0590  -0.0000  -0.0000  -0.0000
  69 O_a :5g1-   0.0000  -0.0857  -0.0122   0.1250
  70 O_a :5g3-   0.1556  -0.0000   0.0000  -0.0000
  71 O_a :5g1-  -0.0000  -0.1397  -0.0896   0.2297
  79 O_a :6h3-  -0.0417   0.0000   0.0000   0.0000
  80 O_a :6h1-  -0.0000   0.0263   0.0297  -0.0471

 Molecular orbitals for symmetry species 4  (A2 )
 ------------------------------------------------

    Orbital         1        2        3        4        5        6        7
   2 C_a :3d2-   0.0024   0.0004  -0.0023   0.0102  -0.0089   0.0443  -0.0254
   3 C_a :3d2-  -0.0186   0.0419  -0.0017  -0.3923   0.1314  -0.6121   0.5085
   4 C_a :3d2-  -0.0953   1.1746  -0.8944  -2.9363  -0.7837  -5.9535   1.4668
   5 C_a :3d2-   0.5598   4.4121  -1.2616  -7.9571  -2.9027  -8.8014   3.3319
   6 C_a :3d2-   1.7198   1.7136   0.8890  -1.1613  -0.7505  -0.2949   0.7853
   7 C_a :4f2-   0.0004  -0.0008  -0.0003   0.0064  -0.0034   0.0104  -0.0072
   8 C_a :4f2-  -0.0056   0.0060  -0.0002  -0.0720   0.0472  -0.1108   0.0535
   9 C_a :4f2-  -0.0701   0.1646  -0.1968  -0.7036   0.1703  -1.4492   0.2956
  10 C_a :4f2-  -0.1604   0.8696  -1.0071  -2.1107   0.1940  -4.4490  -1.4656
  11 C_a :4f2-   0.5028   1.3779   1.2263  -2.9799  -0.3824  -1.6284   1.6712
  13 C_a :5g2-  -0.0009  -0.0016  -0.0026   0.0043   0.0015   0.0032  -0.0127
  15 C_a :5g2-  -0.0060   0.0228  -0.0018  -0.1248   0.0531  -0.1952   0.1163
  17 C_a :5g2-  -0.0638   0.0337  -0.2109  -0.1449   0.0969  -0.5543  -0.4504
  19 C_a :5g2-  -0.0430   0.1912  -0.1597  -0.6574   0.5091  -0.9786  -0.3148
  21 C_a :6h2-  -0.0009   0.0007   0.0001  -0.0103   0.0124  -0.0113   0.0029
  23 C_a :6h2-  -0.0043   0.0103  -0.0167  -0.0305  -0.0171  -0.0892   0.0151
  25 C_a :6h2-  -0.0296   0.0072  -0.0870  -0.0631   0.1586  -0.1518  -0.3190
  27 O_a :3d2-   0.0011  -0.0045   0.0064   0.0007   0.0012   0.0145   0.0138
  28 O_a :3d2-  -0.0030   0.0102  -0.0287  -0.0189  -0.0140  -0.0261  -0.0917
  29 O_a :3d2-   0.1657  -0.2525   0.5114   0.9882  -0.4729   2.2963   0.5060
  30 O_a :3d2-   0.0831  -2.2330   1.3514   5.4736   0.3521  10.2873  -2.0068
  31 O_a :3d2-  -1.4634  -5.4362  -0.7483   6.3120   3.0996   4.4109  -3.1542
  33 O_a :4f2-   0.0023  -0.0020   0.0064   0.0116  -0.0058   0.0253   0.0047
  34 O_a :4f2-  -0.0323   0.0426  -0.0699  -0.2435   0.1178  -0.4936   0.0577
  35 O_a :4f2-  -0.0438   0.3604  -0.2212  -1.1619  -0.0644  -2.3480   0.9442
  36 O_a :4f2-   0.1944   1.2793  -0.4134  -1.6738  -2.5411  -3.0671   1.7474
  40 O_a :5g2-   0.0012  -0.0068   0.0067   0.0146   0.0019   0.0287   0.0029
  42 O_a :5g2-   0.0155  -0.0108   0.0020   0.1764  -0.1279   0.2983  -0.1606
  44 O_a :5g2-  -0.0455  -0.1696  -0.0262   0.2672   0.4489   0.5016  -0.7580
  48 O_a :6h2-  -0.0046  -0.0004  -0.0076  -0.0186   0.0268  -0.0359  -0.0154
  50 O_a :6h2-   0.0088   0.0154   0.0283  -0.0531  -0.0269  -0.0607   0.1754

    Orbital         8        9       10
   1 C_a :3d2-   0.0000  -0.0171   0.0046
   2 C_a :3d2-   0.0000   0.0807   0.0099
   3 C_a :3d2-   0.0000  -0.9362   1.0532
   4 C_a :3d2-   0.0000  -5.4954   9.9503
   5 C_a :3d2-   0.0000  -1.7255   8.1391
   6 C_a :3d2-   0.0000   0.0219   0.2920
   7 C_a :4f2-   0.0000   0.0072  -0.0163
   8 C_a :4f2-   0.0000  -0.0590   0.1954
   9 C_a :4f2-   0.0000  -1.3602   2.2258
  10 C_a :4f2-   0.0000  -1.0197   5.7509
  11 C_a :4f2-   0.0000   0.2215   1.6026
  12 C_a :5g4-   0.0200   0.0000   0.0000
  13 C_a :5g2-   0.0000  -0.0013  -0.0124
  14 C_a :5g4-  -0.1197   0.0000   0.0000
  15 C_a :5g2-   0.0000  -0.0688   0.3732
  16 C_a :5g4-   0.4336   0.0000   0.0000
  17 C_a :5g2-   0.0000  -0.5979   0.5651
  18 C_a :5g4-  -1.3089   0.0000   0.0000
  19 C_a :5g2-   0.0000   1.6974   2.0288
  21 C_a :6h2-   0.0000   0.0164   0.0205
  22 C_a :6h4-   0.0262   0.0000   0.0000
  23 C_a :6h2-   0.0000  -0.1422   0.1443
  24 C_a :6h4-  -0.0520   0.0000   0.0000
  25 C_a :6h2-   0.0000   0.2863   0.1627
  28 O_a :3d2-   0.0000   0.0249   0.0768
  29 O_a :3d2-   0.0000   1.2968  -3.1988
  30 O_a :3d2-   0.0000   4.3915 -13.2975
  31 O_a :3d2-   0.0000   0.6224  -3.7035
  33 O_a :4f2-   0.0000   0.0227  -0.0397
  34 O_a :4f2-   0.0000  -0.3322   0.7676
  35 O_a :4f2-   0.0000  -2.7242   3.4051
  36 O_a :4f2-   0.0000  -2.2337   2.9588
  39 O_a :5g4-   0.0100   0.0000   0.0000
  40 O_a :5g2-   0.0000  -0.0005  -0.0476
  41 O_a :5g4-  -0.0481   0.0000   0.0000
  42 O_a :5g2-   0.0000   0.2464  -0.4886
  43 O_a :5g4-   0.1488   0.0000   0.0000
  44 O_a :5g2-   0.0000   1.2046  -0.7489
  48 O_a :6h2-   0.0000   0.0057   0.0571
  49 O_a :6h4-   0.0141   0.0000   0.0000
  50 O_a :6h2-   0.0000  -0.1462   0.1101

  Total CPU  time used in SIRIUS :  1 minute  18 seconds
  Total wall time used in SIRIUS :  1 minute  18 seconds

 
     Date and time (Linux)  : Wed Jan 11 14:18:51 2023
     Host name              : cn023                                   


                     .---------------------------------------.
                     | End of Wave Function Section (SIRIUS) |
                     `---------------------------------------'



                 .------------------------------------------------.
                 | Starting in Dynamic Property Section (RESPONS) |
                 `------------------------------------------------'


 ----------------------------------------------------------------------------------------
  RESPONSE  -  an MCSCF, MC-srDFT, DFT, SOPPA and SOPPA-srDFT response property program
 ----------------------------------------------------------------------------------------


 -------- OUTPUT FROM RESPONSE INPUT PROCESSING --------




 Linear Response calculation
 ---------------------------

 Print level                                    : IPRLR  =   2
 Maximum number of iterations                   : MAXITL =  60
 Threshold for relative convergence             : THCLR  = 1.000D-03
 Maximum iterations in optimal orbital algorithm: MAXITO =   5

  9 B-frequencies  0.000000D+00  2.015931D-02  4.031862D-02  6.047794D-02  8.063725D-02
  1.007966D-01  1.209559D-01  1.411152D-01  1.612745D-01

    1 second order properties calculated with symmetry no.    1 and labels:

          ZDIPLEN 

    1 second order properties calculated with symmetry no.    2 and labels:

          XDIPLEN 

    1 second order properties calculated with symmetry no.    3 and labels:

          YDIPLEN 


   SCF energy         :     -112.790681093926736
 -- inactive part     :     -135.304752388485838
 -- nuclear repulsion :       22.514071294559098


                     ***************************************
                     *** RHF response calculation (TDHF) ***
                     ***************************************

 ----------------------------------------------------------------
 ----- Linear response calculation
 ----- Symmetry of excitation/property operator(s)    1  ( A1 )
 ----------------------------------------------------------------

 Number of excitations of this symmetry            0
 Number of response properties of this symmetry    1
 Number of C6/C8 properties of this symmetry       0


 Perturbation symmetry.     KSYMOP:           1
 Perturbation spin symmetry.TRPLET:           F
 Orbital variables.         KZWOPT:         713
 Configuration variables.   KZCONF:           0
 Total number of variables. KZVAR :         713


 RSPLR -- linear response calculation for symmetry 1  ( A1 )
 RSPLR -- operator label : ZDIPLEN 
 RSPLR -- operator spin  :   0
 RSPLR -- frequencies    :     0.000000  0.020159  0.040319  0.060478  0.080637
                               0.100797  0.120956  0.141115  0.161274



 ---  SOLVING SETS OF LINEAR EQUATIONS FOR LINEAR RESPONSE PROPERTIES ---

 Operator symmetry = 1  ( A1 ); triplet =   F


 ** RSPCTL MICROITERATION NUMBER    1

       No.  Residual tot.,    conf., and orb.    Bnorm      Frequency 
      ----------------------------------------------------------------
         1    3.01526D+00  0.00D+00  3.02D+00  2.51D+00    0.00000D+00
         2    3.01815D+00  0.00D+00  3.02D+00  2.52D+00    2.01593D-02
         3    3.02686D+00  0.00D+00  3.03D+00  2.53D+00    4.03186D-02
         4    3.04151D+00  0.00D+00  3.04D+00  2.56D+00    6.04779D-02
         5    3.06230D+00  0.00D+00  3.06D+00  2.60D+00    8.06372D-02
         6    3.08953D+00  0.00D+00  3.09D+00  2.64D+00    1.00797D-01
         7    3.12360D+00  0.00D+00  3.12D+00  2.70D+00    1.20956D-01
         8    3.16504D+00  0.00D+00  3.17D+00  2.78D+00    1.41115D-01
         9    3.21452D+00  0.00D+00  3.21D+00  2.86D+00    1.61274D-01

 ** RSPCTL MICROITERATION NUMBER    2

       No.  Residual tot.,    conf., and orb.    Bnorm      Frequency 
      ----------------------------------------------------------------
         1    6.00110D-01  0.00D+00  6.00D-01  3.14D+00    0.00000D+00
         2    6.01143D-01  0.00D+00  6.01D-01  3.15D+00    2.01593D-02
         3    6.04262D-01  0.00D+00  6.04D-01  3.17D+00    4.03186D-02
         4    6.09531D-01  0.00D+00  6.10D-01  3.21D+00    6.04779D-02
         5    6.17060D-01  0.00D+00  6.17D-01  3.26D+00    8.06372D-02
         6    6.27009D-01  0.00D+00  6.27D-01  3.32D+00    1.00797D-01
         7    6.39601D-01  0.00D+00  6.40D-01  3.41D+00    1.20956D-01
         8    6.55132D-01  0.00D+00  6.55D-01  3.51D+00    1.41115D-01
         9    6.73993D-01  0.00D+00  6.74D-01  3.64D+00    1.61274D-01

 ** RSPCTL MICROITERATION NUMBER    3

       No.  Residual tot.,    conf., and orb.    Bnorm      Frequency 
      ----------------------------------------------------------------
         1    7.70185D-02  0.00D+00  7.70D-02  3.17D+00    0.00000D+00
         2    7.72126D-02  0.00D+00  7.72D-02  3.17D+00    2.01593D-02
         3    7.78000D-02  0.00D+00  7.78D-02  3.20D+00    4.03186D-02
         4    7.87964D-02  0.00D+00  7.88D-02  3.23D+00    6.04779D-02
         5    8.02290D-02  0.00D+00  8.02D-02  3.28D+00    8.06372D-02
         6    8.21388D-02  0.00D+00  8.21D-02  3.35D+00    1.00797D-01
         7    8.45834D-02  0.00D+00  8.46D-02  3.44D+00    1.20956D-01
         8    8.76414D-02  0.00D+00  8.76D-02  3.55D+00    1.41115D-01
         9    9.14200D-02  0.00D+00  9.14D-02  3.68D+00    1.61274D-01

 ** RSPCTL MICROITERATION NUMBER    4

       No.  Residual tot.,    conf., and orb.    Bnorm      Frequency 
      ----------------------------------------------------------------
         1    8.22880D-03  0.00D+00  8.23D-03  3.17D+00    0.00000D+00
         2    8.26459D-03  0.00D+00  8.26D-03  3.17D+00    2.01593D-02
         3    8.37314D-03  0.00D+00  8.37D-03  3.20D+00    4.03186D-02
         4    8.55804D-03  0.00D+00  8.56D-03  3.23D+00    6.04779D-02
         5    8.82558D-03  0.00D+00  8.83D-03  3.29D+00    8.06372D-02
         6    9.18515D-03  0.00D+00  9.19D-03  3.35D+00    1.00797D-01
         7    9.64991D-03  0.00D+00  9.65D-03  3.44D+00    1.20956D-01
         8    1.02379D-02  0.00D+00  1.02D-02  3.55D+00    1.41115D-01
         9    1.09733D-02  0.00D+00  1.10D-02  3.68D+00    1.61274D-01

 ** RSPCTL MICROITERATION NUMBER    5

       No.  Residual tot.,    conf., and orb.    Bnorm      Frequency 
      ----------------------------------------------------------------
         1    7.64794D-04  0.00D+00  7.65D-04  3.17D+00    0.00000D+00
         2    7.69603D-04  0.00D+00  7.70D-04  3.17D+00    2.01593D-02
         3    7.84292D-04  0.00D+00  7.84D-04  3.20D+00    4.03186D-02
         4    8.09676D-04  0.00D+00  8.10D-04  3.23D+00    6.04779D-02
         5    8.47202D-04  0.00D+00  8.47D-04  3.29D+00    8.06372D-02
         6    8.99111D-04  0.00D+00  8.99D-04  3.35D+00    1.00797D-01
         7    9.68688D-04  0.00D+00  9.69D-04  3.44D+00    1.20956D-01
         8    1.06065D-03  0.00D+00  1.06D-03  3.55D+00    1.41115D-01
         9    1.18177D-03  0.00D+00  1.18D-03  3.68D+00    1.61274D-01

 *** THE REQUESTED    9 SOLUTION VECTORS CONVERGED

 Convergence of RSP solution vectors, threshold = 1.00D-03
 ---------------------------------------------------------------
 (dimension of paired reduced space:   90)
 RSP solution vector no.    1; norm of residual   2.41D-04
 RSP solution vector no.    2; norm of residual   2.42D-04
 RSP solution vector no.    3; norm of residual   2.45D-04
 RSP solution vector no.    4; norm of residual   2.50D-04
 RSP solution vector no.    5; norm of residual   2.58D-04
 RSP solution vector no.    6; norm of residual   2.68D-04
 RSP solution vector no.    7; norm of residual   2.81D-04
 RSP solution vector no.    8; norm of residual   2.99D-04
 RSP solution vector no.    9; norm of residual   3.21D-04

 *** RSPCTL MICROITERATIONS CONVERGED


           Final output of second order properties from linear response
           ------------------------------------------------------------


@ Spin symmetry of operators: singlet

 Note that minus the linear response function: - << A; B >>(omega) is printed.
 The results are of quadratic accuracy using Sellers formula.

@ FREQUENCY INDEPENDENT SECOND ORDER PROPERTIES

@ -<< ZDIPLEN  ; ZDIPLEN  >> =  1.446668592959E+01

@ FREQUENCY DEPENDENT SECOND ORDER PROPERTIES WITH FREQUENCY :

@    a.u.:  2.0159312D-02
@    cm-1:  4.4244576D+03
@    eV  :  5.4856280D-01
@  kJ/mol:  5.2928267D+01
@    nm  :  2.2601640D+03

@ -<< ZDIPLEN  ; ZDIPLEN  >> =  1.448352189929E+01

@ FREQUENCY DEPENDENT SECOND ORDER PROPERTIES WITH FREQUENCY :

@    a.u.:  4.0318625D-02
@    cm-1:  8.8489153D+03
@    eV  :  1.0971256D+00
@  kJ/mol:  1.0585653D+02
@    nm  :  1.1300820D+03

@ -<< ZDIPLEN  ; ZDIPLEN  >> =  1.453432295022E+01

@ FREQUENCY DEPENDENT SECOND ORDER PROPERTIES WITH FREQUENCY :

@    a.u.:  6.0477937D-02
@    cm-1:  1.3273373D+04
@    eV  :  1.6456884D+00
@  kJ/mol:  1.5878480D+02
@    nm  :  7.5338801D+02

@ -<< ZDIPLEN  ; ZDIPLEN  >> =  1.461998266778E+01

@ FREQUENCY DEPENDENT SECOND ORDER PROPERTIES WITH FREQUENCY :

@    a.u.:  8.0637250D-02
@    cm-1:  1.7697831D+04
@    eV  :  2.1942512D+00
@  kJ/mol:  2.1171307D+02
@    nm  :  5.6504101D+02

@ -<< ZDIPLEN  ; ZDIPLEN  >> =  1.474203893257E+01

@ FREQUENCY DEPENDENT SECOND ORDER PROPERTIES WITH FREQUENCY :

@    a.u.:  1.0079656D-01
@    cm-1:  2.2122288D+04
@    eV  :  2.7428140D+00
@  kJ/mol:  2.6464133D+02
@    nm  :  4.5203281D+02

@ -<< ZDIPLEN  ; ZDIPLEN  >> =  1.490275180822E+01

@ FREQUENCY DEPENDENT SECOND ORDER PROPERTIES WITH FREQUENCY :

@    a.u.:  1.2095587D-01
@    cm-1:  2.6546746D+04
@    eV  :  3.2913768D+00
@  kJ/mol:  3.1756960D+02
@    nm  :  3.7669400D+02

@ -<< ZDIPLEN  ; ZDIPLEN  >> =  1.510522352283E+01

@ FREQUENCY DEPENDENT SECOND ORDER PROPERTIES WITH FREQUENCY :

@    a.u.:  1.4111519D-01
@    cm-1:  3.0971203D+04
@    eV  :  3.8399396D+00
@  kJ/mol:  3.7049787D+02
@    nm  :  3.2288058D+02

@ -<< ZDIPLEN  ; ZDIPLEN  >> =  1.535357376833E+01

@ FREQUENCY DEPENDENT SECOND ORDER PROPERTIES WITH FREQUENCY :

@    a.u.:  1.6127450D-01
@    cm-1:  3.5395661D+04
@    eV  :  4.3885024D+00
@  kJ/mol:  4.2342613D+02
@    nm  :  2.8252050D+02

@ -<< ZDIPLEN  ; ZDIPLEN  >> =  1.565319129079E+01


 Time used in linear response calculation is     61.40 CPU seconds for symmetry 1
 ----------------------------------------------------------------
 ----- Linear response calculation
 ----- Symmetry of excitation/property operator(s)    2  ( B1 )
 ----------------------------------------------------------------

 Number of excitations of this symmetry            0
 Number of response properties of this symmetry    1
 Number of C6/C8 properties of this symmetry       0


 Perturbation symmetry.     KSYMOP:           2
 Perturbation spin symmetry.TRPLET:           F
 Orbital variables.         KZWOPT:         556
 Configuration variables.   KZCONF:           0
 Total number of variables. KZVAR :         556


 RSPLR -- linear response calculation for symmetry 2  ( B1 )
 RSPLR -- operator label : XDIPLEN 
 RSPLR -- operator spin  :   0
 RSPLR -- frequencies    :     0.000000  0.020159  0.040319  0.060478  0.080637
                               0.100797  0.120956  0.141115  0.161274



 ---  SOLVING SETS OF LINEAR EQUATIONS FOR LINEAR RESPONSE PROPERTIES ---

 Operator symmetry = 2  ( B1 ); triplet =   F


 ** RSPCTL MICROITERATION NUMBER    1

       No.  Residual tot.,    conf., and orb.    Bnorm      Frequency 
      ----------------------------------------------------------------
         1    9.17424D-01  0.00D+00  9.17D-01  2.79D+00    0.00000D+00
         2    9.19426D-01  0.00D+00  9.19D-01  2.80D+00    2.01593D-02
         3    9.25513D-01  0.00D+00  9.26D-01  2.82D+00    4.03186D-02
         4    9.35937D-01  0.00D+00  9.36D-01  2.87D+00    6.04779D-02
         5    9.51146D-01  0.00D+00  9.51D-01  2.94D+00    8.06372D-02
         6    9.71826D-01  0.00D+00  9.72D-01  3.03D+00    1.00797D-01
         7    9.98982D-01  0.00D+00  9.99D-01  3.14D+00    1.20956D-01
         8    1.03405D+00  0.00D+00  1.03D+00  3.29D+00    1.41115D-01
         9    1.07909D+00  0.00D+00  1.08D+00  3.48D+00    1.61274D-01

 ** RSPCTL MICROITERATION NUMBER    2

       No.  Residual tot.,    conf., and orb.    Bnorm      Frequency 
      ----------------------------------------------------------------
         1    1.42834D-01  0.00D+00  1.43D-01  2.86D+00    0.00000D+00
         2    1.43469D-01  0.00D+00  1.43D-01  2.87D+00    2.01593D-02
         3    1.45415D-01  0.00D+00  1.45D-01  2.90D+00    4.03186D-02
         4    1.48800D-01  0.00D+00  1.49D-01  2.96D+00    6.04779D-02
         5    1.53859D-01  0.00D+00  1.54D-01  3.04D+00    8.06372D-02
         6    1.60965D-01  0.00D+00  1.61D-01  3.15D+00    1.00797D-01
         7    1.70699D-01  0.00D+00  1.71D-01  3.29D+00    1.20956D-01
         8    1.83954D-01  0.00D+00  1.84D-01  3.48D+00    1.41115D-01
         9    2.02131D-01  0.00D+00  2.02D-01  3.73D+00    1.61274D-01

 ** RSPCTL MICROITERATION NUMBER    3

       No.  Residual tot.,    conf., and orb.    Bnorm      Frequency 
      ----------------------------------------------------------------
         1    1.99273D-02  0.00D+00  1.99D-02  2.86D+00    0.00000D+00
         2    2.00498D-02  0.00D+00  2.00D-02  2.87D+00    2.01593D-02
         3    2.04268D-02  0.00D+00  2.04D-02  2.91D+00    4.03186D-02
         4    2.10879D-02  0.00D+00  2.11D-02  2.96D+00    6.04779D-02
         5    2.20868D-02  0.00D+00  2.21D-02  3.04D+00    8.06372D-02
         6    2.35095D-02  0.00D+00  2.35D-02  3.15D+00    1.00797D-01
         7    2.54882D-02  0.00D+00  2.55D-02  3.30D+00    1.20956D-01
         8    2.82247D-02  0.00D+00  2.82D-02  3.49D+00    1.41115D-01
         9    3.20339D-02  0.00D+00  3.20D-02  3.74D+00    1.61274D-01

 ** RSPCTL MICROITERATION NUMBER    4

       No.  Residual tot.,    conf., and orb.    Bnorm      Frequency 
      ----------------------------------------------------------------
         1    1.25427D-03  0.00D+00  1.25D-03  2.86D+00    0.00000D+00
         2    1.26594D-03  0.00D+00  1.27D-03  2.87D+00    2.01593D-02
         3    1.30220D-03  0.00D+00  1.30D-03  2.91D+00    4.03186D-02
         4    1.36691D-03  0.00D+00  1.37D-03  2.96D+00    6.04779D-02
         5    1.46696D-03  0.00D+00  1.47D-03  3.04D+00    8.06372D-02
         6    1.61291D-03  0.00D+00  1.61D-03  3.15D+00    1.00797D-01
         7    1.82039D-03  0.00D+00  1.82D-03  3.30D+00    1.20956D-01
         8    2.11233D-03  0.00D+00  2.11D-03  3.49D+00    1.41115D-01
         9    2.52340D-03  0.00D+00  2.52D-03  3.74D+00    1.61274D-01

 *** THE REQUESTED    9 SOLUTION VECTORS CONVERGED

 Convergence of RSP solution vectors, threshold = 1.00D-03
 ---------------------------------------------------------------
 (dimension of paired reduced space:   72)
 RSP solution vector no.    1; norm of residual   4.38D-04
 RSP solution vector no.    2; norm of residual   4.41D-04
 RSP solution vector no.    3; norm of residual   4.48D-04
 RSP solution vector no.    4; norm of residual   4.62D-04
 RSP solution vector no.    5; norm of residual   4.82D-04
 RSP solution vector no.    6; norm of residual   5.12D-04
 RSP solution vector no.    7; norm of residual   5.52D-04
 RSP solution vector no.    8; norm of residual   6.05D-04
 RSP solution vector no.    9; norm of residual   6.74D-04

 *** RSPCTL MICROITERATIONS CONVERGED


           Final output of second order properties from linear response
           ------------------------------------------------------------


@ Spin symmetry of operators: singlet

 Note that minus the linear response function: - << A; B >>(omega) is printed.
 The results are of quadratic accuracy using Sellers formula.

@ FREQUENCY INDEPENDENT SECOND ORDER PROPERTIES

@ -<< XDIPLEN  ; XDIPLEN  >> =  1.127251944107E+01

@ FREQUENCY DEPENDENT SECOND ORDER PROPERTIES WITH FREQUENCY :

@    a.u.:  2.0159312D-02
@    cm-1:  4.4244576D+03
@    eV  :  5.4856280D-01
@  kJ/mol:  5.2928267D+01
@    nm  :  2.2601640D+03

@ -<< XDIPLEN  ; XDIPLEN  >> =  1.128964935706E+01

@ FREQUENCY DEPENDENT SECOND ORDER PROPERTIES WITH FREQUENCY :

@    a.u.:  4.0318625D-02
@    cm-1:  8.8489153D+03
@    eV  :  1.0971256D+00
@  kJ/mol:  1.0585653D+02
@    nm  :  1.1300820D+03

@ -<< XDIPLEN  ; XDIPLEN  >> =  1.134160367385E+01

@ FREQUENCY DEPENDENT SECOND ORDER PROPERTIES WITH FREQUENCY :

@    a.u.:  6.0477937D-02
@    cm-1:  1.3273373D+04
@    eV  :  1.6456884D+00
@  kJ/mol:  1.5878480D+02
@    nm  :  7.5338801D+02

@ -<< XDIPLEN  ; XDIPLEN  >> =  1.143013631143E+01

@ FREQUENCY DEPENDENT SECOND ORDER PROPERTIES WITH FREQUENCY :

@    a.u.:  8.0637250D-02
@    cm-1:  1.7697831D+04
@    eV  :  2.1942512D+00
@  kJ/mol:  2.1171307D+02
@    nm  :  5.6504101D+02

@ -<< XDIPLEN  ; XDIPLEN  >> =  1.155838461439E+01

@ FREQUENCY DEPENDENT SECOND ORDER PROPERTIES WITH FREQUENCY :

@    a.u.:  1.0079656D-01
@    cm-1:  2.2122288D+04
@    eV  :  2.7428140D+00
@  kJ/mol:  2.6464133D+02
@    nm  :  4.5203281D+02

@ -<< XDIPLEN  ; XDIPLEN  >> =  1.173124273931E+01

@ FREQUENCY DEPENDENT SECOND ORDER PROPERTIES WITH FREQUENCY :

@    a.u.:  1.2095587D-01
@    cm-1:  2.6546746D+04
@    eV  :  3.2913768D+00
@  kJ/mol:  3.1756960D+02
@    nm  :  3.7669400D+02

@ -<< XDIPLEN  ; XDIPLEN  >> =  1.195601037764E+01

@ FREQUENCY DEPENDENT SECOND ORDER PROPERTIES WITH FREQUENCY :

@    a.u.:  1.4111519D-01
@    cm-1:  3.0971203D+04
@    eV  :  3.8399396D+00
@  kJ/mol:  3.7049787D+02
@    nm  :  3.2288058D+02

@ -<< XDIPLEN  ; XDIPLEN  >> =  1.224350728981E+01

@ FREQUENCY DEPENDENT SECOND ORDER PROPERTIES WITH FREQUENCY :

@    a.u.:  1.6127450D-01
@    cm-1:  3.5395661D+04
@    eV  :  4.3885024D+00
@  kJ/mol:  4.2342613D+02
@    nm  :  2.8252050D+02

@ -<< XDIPLEN  ; XDIPLEN  >> =  1.261004014199E+01


 Time used in linear response calculation is     49.44 CPU seconds for symmetry 2
 ----------------------------------------------------------------
 ----- Linear response calculation
 ----- Symmetry of excitation/property operator(s)    3  ( B2 )
 ----------------------------------------------------------------

 Number of excitations of this symmetry            0
 Number of response properties of this symmetry    1
 Number of C6/C8 properties of this symmetry       0


 Perturbation symmetry.     KSYMOP:           3
 Perturbation spin symmetry.TRPLET:           F
 Orbital variables.         KZWOPT:         556
 Configuration variables.   KZCONF:           0
 Total number of variables. KZVAR :         556


 RSPLR -- linear response calculation for symmetry 3  ( B2 )
 RSPLR -- operator label : YDIPLEN 
 RSPLR -- operator spin  :   0
 RSPLR -- frequencies    :     0.000000  0.020159  0.040319  0.060478  0.080637
                               0.100797  0.120956  0.141115  0.161274



 ---  SOLVING SETS OF LINEAR EQUATIONS FOR LINEAR RESPONSE PROPERTIES ---

 Operator symmetry = 3  ( B2 ); triplet =   F


 ** RSPCTL MICROITERATION NUMBER    1

       No.  Residual tot.,    conf., and orb.    Bnorm      Frequency 
      ----------------------------------------------------------------
         1    9.13466D-01  0.00D+00  9.13D-01  2.79D+00    0.00000D+00
         2    9.15507D-01  0.00D+00  9.16D-01  2.80D+00    2.01593D-02
         3    9.21715D-01  0.00D+00  9.22D-01  2.83D+00    4.03186D-02
         4    9.32347D-01  0.00D+00  9.32D-01  2.87D+00    6.04779D-02
         5    9.47861D-01  0.00D+00  9.48D-01  2.94D+00    8.06372D-02
         6    9.68957D-01  0.00D+00  9.69D-01  3.03D+00    1.00797D-01
         7    9.96661D-01  0.00D+00  9.97D-01  3.15D+00    1.20956D-01
         8    1.03244D+00  0.00D+00  1.03D+00  3.30D+00    1.41115D-01
         9    1.07839D+00  0.00D+00  1.08D+00  3.48D+00    1.61274D-01

 ** RSPCTL MICROITERATION NUMBER    2

       No.  Residual tot.,    conf., and orb.    Bnorm      Frequency 
      ----------------------------------------------------------------
         1    1.30237D-01  0.00D+00  1.30D-01  2.86D+00    0.00000D+00
         2    1.30813D-01  0.00D+00  1.31D-01  2.87D+00    2.01593D-02
         3    1.32581D-01  0.00D+00  1.33D-01  2.90D+00    4.03186D-02
         4    1.35664D-01  0.00D+00  1.36D-01  2.96D+00    6.04779D-02
         5    1.40284D-01  0.00D+00  1.40D-01  3.04D+00    8.06372D-02
         6    1.46801D-01  0.00D+00  1.47D-01  3.15D+00    1.00797D-01
         7    1.55771D-01  0.00D+00  1.56D-01  3.29D+00    1.20956D-01
         8    1.68054D-01  0.00D+00  1.68D-01  3.48D+00    1.41115D-01
         9    1.84999D-01  0.00D+00  1.85D-01  3.73D+00    1.61274D-01

 ** RSPCTL MICROITERATION NUMBER    3

       No.  Residual tot.,    conf., and orb.    Bnorm      Frequency 
      ----------------------------------------------------------------
         1    1.90386D-02  0.00D+00  1.90D-02  2.86D+00    0.00000D+00
         2    1.91581D-02  0.00D+00  1.92D-02  2.87D+00    2.01593D-02
         3    1.95259D-02  0.00D+00  1.95D-02  2.91D+00    4.03186D-02
         4    2.01712D-02  0.00D+00  2.02D-02  2.96D+00    6.04779D-02
         5    2.11469D-02  0.00D+00  2.11D-02  3.04D+00    8.06372D-02
         6    2.25376D-02  0.00D+00  2.25D-02  3.15D+00    1.00797D-01
         7    2.44727D-02  0.00D+00  2.45D-02  3.30D+00    1.20956D-01
         8    2.71500D-02  0.00D+00  2.71D-02  3.49D+00    1.41115D-01
         9    3.08768D-02  0.00D+00  3.09D-02  3.74D+00    1.61274D-01

 ** RSPCTL MICROITERATION NUMBER    4

       No.  Residual tot.,    conf., and orb.    Bnorm      Frequency 
      ----------------------------------------------------------------
         1    1.24176D-03  0.00D+00  1.24D-03  2.86D+00    0.00000D+00
         2    1.25333D-03  0.00D+00  1.25D-03  2.87D+00    2.01593D-02
         3    1.28916D-03  0.00D+00  1.29D-03  2.91D+00    4.03186D-02
         4    1.35266D-03  0.00D+00  1.35D-03  2.96D+00    6.04779D-02
         5    1.44987D-03  0.00D+00  1.45D-03  3.04D+00    8.06372D-02
         6    1.59012D-03  0.00D+00  1.59D-03  3.15D+00    1.00797D-01
         7    1.78710D-03  0.00D+00  1.79D-03  3.30D+00    1.20956D-01
         8    2.06098D-03  0.00D+00  2.06D-03  3.49D+00    1.41115D-01
         9    2.44218D-03  0.00D+00  2.44D-03  3.74D+00    1.61274D-01

 *** THE REQUESTED    9 SOLUTION VECTORS CONVERGED

 Convergence of RSP solution vectors, threshold = 1.00D-03
 ---------------------------------------------------------------
 (dimension of paired reduced space:   72)
 RSP solution vector no.    1; norm of residual   4.34D-04
 RSP solution vector no.    2; norm of residual   4.36D-04
 RSP solution vector no.    3; norm of residual   4.44D-04
 RSP solution vector no.    4; norm of residual   4.57D-04
 RSP solution vector no.    5; norm of residual   4.77D-04
 RSP solution vector no.    6; norm of residual   5.04D-04
 RSP solution vector no.    7; norm of residual   5.42D-04
 RSP solution vector no.    8; norm of residual   5.90D-04
 RSP solution vector no.    9; norm of residual   6.52D-04

 *** RSPCTL MICROITERATIONS CONVERGED


           Final output of second order properties from linear response
           ------------------------------------------------------------


@ Spin symmetry of operators: singlet

 Note that minus the linear response function: - << A; B >>(omega) is printed.
 The results are of quadratic accuracy using Sellers formula.

@ FREQUENCY INDEPENDENT SECOND ORDER PROPERTIES

@ -<< YDIPLEN  ; YDIPLEN  >> =  1.127251946355E+01

@ FREQUENCY DEPENDENT SECOND ORDER PROPERTIES WITH FREQUENCY :

@    a.u.:  2.0159312D-02
@    cm-1:  4.4244576D+03
@    eV  :  5.4856280D-01
@  kJ/mol:  5.2928267D+01
@    nm  :  2.2601640D+03

@ -<< YDIPLEN  ; YDIPLEN  >> =  1.128964938022E+01

@ FREQUENCY DEPENDENT SECOND ORDER PROPERTIES WITH FREQUENCY :

@    a.u.:  4.0318625D-02
@    cm-1:  8.8489153D+03
@    eV  :  1.0971256D+00
@  kJ/mol:  1.0585653D+02
@    nm  :  1.1300820D+03

@ -<< YDIPLEN  ; YDIPLEN  >> =  1.134160369920E+01

@ FREQUENCY DEPENDENT SECOND ORDER PROPERTIES WITH FREQUENCY :

@    a.u.:  6.0477937D-02
@    cm-1:  1.3273373D+04
@    eV  :  1.6456884D+00
@  kJ/mol:  1.5878480D+02
@    nm  :  7.5338801D+02

@ -<< YDIPLEN  ; YDIPLEN  >> =  1.143013634096E+01

@ FREQUENCY DEPENDENT SECOND ORDER PROPERTIES WITH FREQUENCY :

@    a.u.:  8.0637250D-02
@    cm-1:  1.7697831D+04
@    eV  :  2.1942512D+00
@  kJ/mol:  2.1171307D+02
@    nm  :  5.6504101D+02

@ -<< YDIPLEN  ; YDIPLEN  >> =  1.155838465108E+01

@ FREQUENCY DEPENDENT SECOND ORDER PROPERTIES WITH FREQUENCY :

@    a.u.:  1.0079656D-01
@    cm-1:  2.2122288D+04
@    eV  :  2.7428140D+00
@  kJ/mol:  2.6464133D+02
@    nm  :  4.5203281D+02

@ -<< YDIPLEN  ; YDIPLEN  >> =  1.173124278796E+01

@ FREQUENCY DEPENDENT SECOND ORDER PROPERTIES WITH FREQUENCY :

@    a.u.:  1.2095587D-01
@    cm-1:  2.6546746D+04
@    eV  :  3.2913768D+00
@  kJ/mol:  3.1756960D+02
@    nm  :  3.7669400D+02

@ -<< YDIPLEN  ; YDIPLEN  >> =  1.195601044642E+01

@ FREQUENCY DEPENDENT SECOND ORDER PROPERTIES WITH FREQUENCY :

@    a.u.:  1.4111519D-01
@    cm-1:  3.0971203D+04
@    eV  :  3.8399396D+00
@  kJ/mol:  3.7049787D+02
@    nm  :  3.2288058D+02

@ -<< YDIPLEN  ; YDIPLEN  >> =  1.224350739323E+01

@ FREQUENCY DEPENDENT SECOND ORDER PROPERTIES WITH FREQUENCY :

@    a.u.:  1.6127450D-01
@    cm-1:  3.5395661D+04
@    eV  :  4.3885024D+00
@  kJ/mol:  4.2342613D+02
@    nm  :  2.8252050D+02

@ -<< YDIPLEN  ; YDIPLEN  >> =  1.261004030710E+01


 Time used in linear response calculation is     49.50 CPU seconds for symmetry 3

  Total CPU  time used in RESPONSE:  2 minutes 40 seconds
  Total wall time used in RESPONSE:  2 minutes 40 seconds


                   .-------------------------------------------.
                   | End of Dynamic Property Section (RESPONS) |
                   `-------------------------------------------'



 PLTORB knows S,P,D,F,G shells. The basis set contains orbital(s) with higher angular momentum,
 and the writing of MOLPLT file is thus abandoned.

  Total CPU  time used in DALTON:  4 minutes  2 seconds
  Total wall time used in DALTON:  4 minutes  2 seconds

 
     Date and time (Linux)  : Wed Jan 11 14:21:32 2023
     Host name              : cn023                                   
