

     ************************************************************************
     *************** Dalton - An Electronic Structure Program ***************
     ************************************************************************

    This is output from DALTON release Dalton2020.0 (2020)
         ( Web site: http://daltonprogram.org )

   ----------------------------------------------------------------------------

    NOTE:
     
    Dalton is an experimental code for the evaluation of molecular
    properties using (MC)SCF, DFT, CI, and CC wave functions.
    The authors accept no responsibility for the performance of
    the code or for the correctness of the results.
     
    The code (in whole or part) is provided under a licence and
    is not to be reproduced for further distribution without
    the written permission of the authors or their representatives.
     
    See the home page "http://daltonprogram.org" for further information.
     
    If results obtained with this code are published,
    the appropriate citations would be both of:
     
       K. Aidas, C. Angeli, K. L. Bak, V. Bakken, R. Bast,
       L. Boman, O. Christiansen, R. Cimiraglia, S. Coriani,
       P. Dahle, E. K. Dalskov, U. Ekstroem,
       T. Enevoldsen, J. J. Eriksen, P. Ettenhuber, B. Fernandez,
       L. Ferrighi, H. Fliegl, L. Frediani, K. Hald, A. Halkier,
       C. Haettig, H. Heiberg, T. Helgaker, A. C. Hennum,
       H. Hettema, E. Hjertenaes, S. Hoest, I.-M. Hoeyvik,
       M. F. Iozzi, B. Jansik, H. J. Aa. Jensen, D. Jonsson,
       P. Joergensen, J. Kauczor, S. Kirpekar,
       T. Kjaergaard, W. Klopper, S. Knecht, R. Kobayashi, H. Koch,
       J. Kongsted, A. Krapp, K. Kristensen, A. Ligabue,
       O. B. Lutnaes, J. I. Melo, K. V. Mikkelsen, R. H. Myhre,
       C. Neiss, C. B. Nielsen, P. Norman, J. Olsen,
       J. M. H. Olsen, A. Osted, M. J. Packer, F. Pawlowski,
       T. B. Pedersen, P. F. Provasi, S. Reine, Z. Rinkevicius,
       T. A. Ruden, K. Ruud, V. Rybkin, P. Salek, C. C. M. Samson,
       A. Sanchez de Meras, T. Saue, S. P. A. Sauer,
       B. Schimmelpfennig, K. Sneskov, A. H. Steindal,
       K. O. Sylvester-Hvid, P. R. Taylor, A. M. Teale,
       E. I. Tellgren, D. P. Tew, A. J. Thorvaldsen, L. Thoegersen,
       O. Vahtras, M. A. Watson, D. J. D. Wilson, M. Ziolkowski
       and H. Agren,
       "The Dalton quantum chemistry program system",
       WIREs Comput. Mol. Sci. 2014, 4:269–284 (doi: 10.1002/wcms.1172)
     
    and
     
       Dalton, a molecular electronic structure program,
       Release Dalton2020.0 (2020), see http://daltonprogram.org
   ----------------------------------------------------------------------------

    Authors in alphabetical order (Major contribution(s) in parenthesis):

  Kestutis Aidas,           Vilnius University,           Lithuania   (QM/MM)
  Celestino Angeli,         University of Ferrara,        Italy       (NEVPT2)
  Keld L. Bak,              UNI-C,                        Denmark     (AOSOPPA, non-adiabatic coupling, magnetic properties)
  Vebjoern Bakken,          University of Oslo,           Norway      (DALTON; geometry optimizer, symmetry detection)
  Radovan Bast,             UiT The Arctic U. of Norway,  Norway      (DALTON installation and execution frameworks)
  Pablo Baudin,             University of Valencia,       Spain       (Cholesky excitation energies)
  Linus Boman,              NTNU,                         Norway      (Cholesky decomposition and subsystems)
  Bruno N. Cabral Tenorio,  Technical Univ. of Denmark,   Denmark     (Lanczos-based CC methods)
  Ove Christiansen,         Aarhus University,            Denmark     (CC module)
  Renzo Cimiraglia,         University of Ferrara,        Italy       (NEVPT2)
  Sonia Coriani,            Technical Univ. of Denmark,   Denmark     (CC and RESPONS modules)
  Janusz Cukras,            University of Warsaw,         Poland      (MChD in RESPONS)
  Paal Dahle,               University of Oslo,           Norway      (Parallelization)
  Erik K. Dalskov,          UNI-C,                        Denmark     (SOPPA)
  Thomas Enevoldsen,        Univ. of Southern Denmark,    Denmark     (SOPPA)
  Janus J. Eriksen,         Aarhus University,            Denmark     (Polarizable embedding, TDA)
  Rasmus Faber,             Technical Univ. of Denmark,   Denmark     (Vib.avg. NMR w. SOPPA, parallel AO-SOPPA, CVS-CC and EOMCC)
  Tobias Fahleson,          KTH Stockholm,                Sweden      (Damped cubic response)
  Berta Fernandez,          U. of Santiago de Compostela, Spain       (Doublet spin, ESR in RESPONS)
  Lara Ferrighi,            Aarhus University,            Denmark     (PCM Cubic response)
  Heike Fliegl,             University of Oslo,           Norway      (CCSD(R12))
  Luca Frediani,            UiT The Arctic U. of Norway,  Norway      (PCM)
  Emmanuel Fromager,        Univ. Strasbourg,             France      (MC-srDFT)
  Bin Gao,                  UiT The Arctic U. of Norway,  Norway      (Gen1Int library)
  Andre S. P. Gomes,        CNRS/Universite de Lille,     France      (Frozen density embedding)
  Christof Haettig,         Ruhr-University Bochum,       Germany     (CC module)
  Kasper Hald,              Aarhus University,            Denmark     (CC module)
  Asger Halkier,            Aarhus University,            Denmark     (CC module)
  Frederik Beyer Hansen,    University of Copenhagen,     Denmark     (Parallel AO-SOPPA)
  Erik D. Hedegaard,        Univ. of Southern Denmark,    Denmark     (Polarizable embedding, QM/MM, and MC-srDFT)
  Hanne Heiberg,            University of Oslo,           Norway      (Geometry analysis, selected one-electron integrals)
  Trygve Helgaker,          University of Oslo,           Norway      (DALTON; ABACUS, ERI, DFT modules, London, and much more)
  Alf Christian Hennum,     University of Oslo,           Norway      (Parity violation)
  Hinne Hettema,            University of Auckland,       New Zealand (Quadratic response in RESPONS; SIRIUS supersymmetry)
  Eirik Hjertenaes,         NTNU,                         Norway      (Cholesky decomposition)
  Pi A. B. Haase,           University of Copenhagen,     Denmark     (Triplet AO-SOPPA)
  Maria Francesca Iozzi,    University of Oslo,           Norway      (RPA)
  Christoph Jacob           TU Braunschweig               Germany     (Frozen density embedding)
  Brano Jansik              Technical Univ. of Ostrava    Czech Rep.  (DFT cubic response)
  Hans Joergen Aa. Jensen,  Univ. of Southern Denmark,    Denmark     (DALTON; SIRIUS, RESPONS, ABACUS, MC-srDFT, and much more)
  Dan Jonsson,              UiT The Arctic U. of Norway,  Norway      (Cubic response in RESPONS module)
  Poul Joergensen,          Aarhus University,            Denmark     (RESPONS, ABACUS, and CC modules)
  Maciej Kaminski,          University of Warsaw,         Poland      (CPPh in RESPONS)
  Joanna Kauczor,           Linkoeping University,        Sweden      (Complex polarization propagator (CPP) module)
  Sheela Kirpekar,          Univ. of Southern Denmark,    Denmark     (Mass-velocity & Darwin integrals)
  Erik Kjellgren,           Univ. of Southern Denmark,    Denmark     (MC-srDFT)
  Wim Klopper,              KIT Karlsruhe,                Germany     (R12 code in CC, SIRIUS, and ABACUS modules)
  Stefan Knecht,            ETH Zurich,                   Switzerland (Parallel CI and MCSCF, MC-srDFT)
  Rika Kobayashi,           Australian National Univ.,    Australia   (DIIS in CC, London in MCSCF)
  Henrik Koch,              NTNU,                         Norway      (CC module, Cholesky decomposition)
  Jacob Kongsted,           Univ. of Southern Denmark,    Denmark     (Polarizable embedding, polarizable density embedding, QM/MM)
  Andrea Ligabue,           University of Modena,         Italy       (CTOCD, AOSOPPA)
  Nanna H. List             Univ. of Southern Denmark,    Denmark     (Polarizable embedding)
  Ola B. Lutnaes,           University of Oslo,           Norway      (DFT Hessian)
  Juan I. Melo,             University of Buenos Aires,   Argentina   (LRESC, Relativistic Effects on NMR Shieldings)
  Kurt V. Mikkelsen,        University of Copenhagen,     Denmark     (MC-SCRF and QM/MM)
  Rolf H. Myhre,            NTNU,                         Norway      (Subsystems and CC3)
  Christian Neiss,          Univ. Erlangen-Nuernberg,     Germany     (CCSD(R12))
  Christian B. Nielsen,     University of Copenhagen,     Denmark     (QM/MM)
  Patrick Norman,           KTH Stockholm,                Sweden      (Cubic response and complex frequency response in RESPONS)
  Jeppe Olsen,              Aarhus University,            Denmark     (SIRIUS CI/density modules)
  Jogvan Magnus H. Olsen,   Aarhus University,            Denmark     (Polarizable embedding and polarizable density embedding)
  Anders Osted,             Copenhagen University,        Denmark     (QM/MM)
  Martin J. Packer,         University of Sheffield,      UK          (SOPPA)
  Filip Pawlowski,          Kazimierz Wielki University,  Poland      (CC3)
  Morten N. Pedersen,       Univ. of Southern Denmark,    Denmark     (Polarizable embedding)
  Thomas B. Pedersen,       University of Oslo,           Norway      (Cholesky decomposition)
  Patricio F. Provasi,      University of Northeastern,   Argentina   (Analysis of coupling constants in localized orbitals)
  Peter Reinholdt,          Univ. of Southern Denmark,    Denmark     (Polarizable embedding and polarizable density embedding)
  Zilvinas Rinkevicius,     KTH Stockholm,                Sweden      (open-shell DFT, ESR)
  Elias Rudberg,            KTH Stockholm,                Sweden      (DFT grid and basis info)
  Torgeir A. Ruden,         University of Oslo,           Norway      (Numerical derivatives in ABACUS)
  Kenneth Ruud,             UiT The Arctic U. of Norway,  Norway      (DALTON; ABACUS magnetic properties and much more)
  Pawel Salek,              KTH Stockholm,                Sweden      (DALTON; DFT code)
  Claire C. M. Samson       University of Karlsruhe       Germany     (Boys localization, r12 integrals in ERI)
  Alfredo Sanchez de Meras, University of Valencia,       Spain       (CC module, Cholesky decomposition)
  Trond Saue,               Paul Sabatier University,     France      (direct Fock matrix construction)
  Stephan P. A. Sauer,      University of Copenhagen,     Denmark     (SOPPA(CCSD), SOPPA prop., AOSOPPA, vibrational g-factors)
  Bernd Schimmelpfennig,    Forschungszentrum Karlsruhe,  Germany     (AMFI module)
  Anna K. Schnack-Petersen, University of Copenhagen,     Denmark     (RPA(D) and HRPA(D) properties in AOSOPPA)
  Kristian Sneskov,         Aarhus University,            Denmark     (Polarizable embedding, QM/MM)
  Arnfinn H. Steindal,      UiT The Arctic U. of Norway,  Norway      (parallel QM/MM, polarizable embedding)
  Casper Steinmann,         Aalborg University,           Denmark     (QFIT, polarizable embedding)
  K. O. Sylvester-Hvid,     University of Copenhagen,     Denmark     (MC-SCRF)
  Peter R. Taylor,          VLSCI/Univ. of Melbourne,     Australia   (Symmetry handling ABACUS, integral transformation)
  Andrew M. Teale,          University of Nottingham,     England     (DFT-AC, DFT-D)
  David P. Tew,             University of Bristol,        England     (CCSD(R12))
  Julien Toulouse,          Sorbonne Univ.,               France      (MC-srDFT)
  Olav Vahtras,             KTH Stockholm,                Sweden      (Triplet response, spin-orbit, ESR, TDDFT, open-shell DFT)
  Lucas Visscher,           Vrije Universiteit Amsterdam, Netherlands (Frozen density embedding)
  David J. Wilson,          La Trobe University,          Australia   (DFT Hessian and DFT magnetizabilities)
  Hans Agren,               KTH Stockholm,                Sweden      (SIRIUS module, RESPONS, MC-SCRF solvation)
 --------------------------------------------------------------------------------

     Date and time (Linux)  : Wed Jan 11 14:14:31 2023
     Host name              : cn042                                   

 * Work memory size             :    64000000 =  488.28 megabytes.

 * Directories for basis set searches:
   1) /gpfs/projects/rjh/adrian/fd_compare/dalton/hf/NaCl/dipole
   2) /gpfs/projects/rjh/adrian/dalton/build/basis


Compilation information
-----------------------

 Who compiled             | ahurtado
 Host                     | sn-mem
 System                   | Linux-3.10.0-1160.24.1.el7.x86_64
 CMake generator          | Unix Makefiles
 Processor                | x86_64
 64-bit integers          | OFF
 MPI                      | ON
 Fortran compiler         | /gpfs/software/intel/oneAPI/2021_4/mpi/2021.4.0/bi
                          | n/mpif90
 Fortran compiler version | GNU Fortran (GCC) 11.2.0
 C compiler               | /gpfs/software/intel/oneAPI/2021_4/mpi/2021.4.0/bi
                          | n/mpicc
 C compiler version       | gcc (GCC) 11.2.0
 C++ compiler             | /gpfs/software/intel/oneAPI/2021_4/mpi/2021.4.0/bi
                          | n/mpicxx
 C++ compiler version     | unknown
 BLAS                     | /gpfs/software/intel/oneAPI/2021_4/mkl/2021.4.0/li
                          | b/intel64/libmkl_gf_lp64.so;/gpfs/software/intel/o
                          | neAPI/2021_4/mkl/2021.4.0/lib/intel64/libmkl_seque
                          | ntial.so;/gpfs/software/intel/oneAPI/2021_4/mkl/20
                          | 21.4.0/lib/intel64/libmkl_core.so;/usr/lib64/libpt
                          | hread.so;/usr/lib64/libm.so
 LAPACK                   | /gpfs/software/intel/oneAPI/2021_4/mkl/2021.4.0/li
                          | b/intel64/libmkl_lapack95_lp64.a;/gpfs/software/in
                          | tel/oneAPI/2021_4/mkl/2021.4.0/lib/intel64/libmkl_
                          | gf_lp64.so
 Static linking           | OFF
 Last Git revision        | 66052b3af5ea7225e31178bf9a8b031913c72190
 Git branch               | (HEAD detached at Dalton2020.0)
 Configuration time       | 2023-01-11 13:33:37.731835

 * MPI parallel run using 20 processes.


   Content of the .dal input file
 ----------------------------------

**DALTON INPUT
.RUN RESPONSE
.DIRECT
**WAVE FUNCTIONS
.HF
**RESPONSE
*LINEAR
.DIPLEN
.FREQUENCIES
9
0.0 0.01227675 0.0245535 0.036830249999999995 0.049107 0.06138375 0.07366049999999999 0.085937249999
**END OF DALTON INPUT


   Content of the .mol file
 ----------------------------

BASIS
aug-cc-pVQZ
blah
blah
Atomtype=2 Atomic
Charge=11 Atoms=1
Na_a 0.000000000000 0.000000000000 0.000000000000
Charge=17 Atoms=1
Cl_a 0.000000000000 0.000000000000 4.461300000000


       *******************************************************************
       *********** Output from DALTON general input processing ***********
       *******************************************************************

 --------------------------------------------------------------------------------
   Overall default print level:    0
   Print level for DALTON.STAT:    1

    Parallel calculation using MPI
    AO-direct calculation (in sections where implemented)
    HERMIT 1- and 2-electron integral sections will be executed
    "Old" integral transformation used (limited to max 255 basis functions)
    Wave function sections will be executed (SIRIUS module)
    Dynamic molecular response properties section will be executed (RESPONSE module)
 --------------------------------------------------------------------------------


   ****************************************************************************
   *************** Output of molecule and basis set information ***************
   ****************************************************************************


    The two title cards from your ".mol" input:
    ------------------------------------------------------------------------
 1: blah                                                                    
 2: blah                                                                    
    ------------------------------------------------------------------------

  Atomic type no.    1
  --------------------
  Nuclear charge:  11.00000
  Number of symmetry independent centers:    1
  Number of basis sets to read;    2
  Basis set file used for this atomic type with Z =  11 :
     "/gpfs/projects/rjh/adrian/dalton/build/basis/aug-cc-pVQZ"

  Atomic type no.    2
  --------------------
  Nuclear charge:  17.00000
  Number of symmetry independent centers:    1
  Number of basis sets to read;    2
  Basis set file used for this atomic type with Z =  17 :
     "/gpfs/projects/rjh/adrian/dalton/build/basis/aug-cc-pVQZ"


                      SYMADD: Requested addition of symmetry
                      --------------------------------------

 Symmetry test threshold:  5.00E-06

@   The molecule is centered at center of mass and rotated
@   so principal axes of inertia are along coordinate axes.

 Symmetry class found: C(oo,v)        

 Symmetry Independent Centres             
 ----------------------------
Cl_a  17 :      0.00000000     0.00000000     1.76961176  Isotope  1
Na_a  11 :      0.00000000     0.00000000    -2.69168824  Isotope  1

 The following symmetry elements were found:   X  Y     


                         SYMGRP: Point group information
                         -------------------------------

@    Full point group is: C(oo,v)        
@    Represented as:      C2v

@  * The irrep name for each symmetry:    1: A1     2: B1     3: B2     4: A2 

   * The point group was generated by:

      Reflection in the yz-plane
      Reflection in the xz-plane

   * Group multiplication table

        |  E   C2z  Oxz  Oyz
   -----+--------------------
     E  |  E   C2z  Oxz  Oyz
    C2z | C2z   E   Oyz  Oxz
    Oxz | Oxz  Oyz   E   C2z
    Oyz | Oyz  Oxz  C2z   E 

   * Character table

        |  E   C2z  Oxz  Oyz
   -----+--------------------
    A1  |   1    1    1    1
    B1  |   1   -1    1   -1
    B2  |   1   -1   -1    1
    A2  |   1    1   -1   -1

   * Direct product table

        | A1   B1   B2   A2 
   -----+--------------------
    A1  | A1   B1   B2   A2 
    B1  | B1   A1   A2   B2 
    B2  | B2   A2   A1   B1 
    A2  | A2   B2   B1   A1 


                                 Isotopic Masses
                                 ---------------

                           Na_a       22.989770
                           Cl_a       34.968853

                       Total mass:    57.958623 amu
                       Natural abundance:  75.770 %

 Center-of-mass coordinates (a.u.):    0.000000    0.000000    0.000000
 Center-of-mass coordinates (Angs):    0.000000    0.000000    0.000000


  Atoms and basis sets
  --------------------

  Number of atom types :    2
  Total number of atoms:    2

  Basis set used is "aug-cc-pVQZ" from the basis set library.

  label    atoms   charge   prim   cont     basis
  ----------------------------------------------------------------------
  Na          1   11.0000   118    84      [20s13p4d3f2g|7s6p4d3f2g]                          
  Cl          1   17.0000   112    84      [17s12p4d3f2g|7s6p4d3f2g]                          
  ----------------------------------------------------------------------
  total:      2   28.0000   230   168
  ----------------------------------------------------------------------
  Spherical harmonic basis used.

  Threshold for neglecting AO integrals:  1.00D-12


  Cartesian Coordinates (a.u.)
  ----------------------------

  Total number of coordinates:    6
  Na_a    :     1  x   0.0000000000    2  y   0.0000000000    3  z  -2.6916882392
  Cl_a    :     4  x   0.0000000000    5  y   0.0000000000    6  z   1.7696117608


  Symmetry Coordinates
  --------------------

  Number of coordinates in each symmetry:     2    2    2    0

  Symmetry  A1  ( 1)

    1   Na_a  z    3
    2   Cl_a  z    6

  Symmetry  B1  ( 2)

    3   Na_a  x    1
    4   Cl_a  x    4

  Symmetry  B2  ( 3)

    5   Na_a  y    2
    6   Cl_a  y    5


   Interatomic separations (in Angstrom):
   --------------------------------------

            Na_a        Cl_a  
            ------      ------
 Na_a  :    0.000000
 Cl_a  :    2.360818    0.000000


  Max    interatomic separation is    2.3608 Angstrom (    4.4613 Bohr)
  between atoms    2 and    1, "Cl_a  " and "Na_a  ".

  Min YX interatomic separation is    2.3608 Angstrom (    4.4613 Bohr)


  Bond distances (Angstrom):
  --------------------------

                  atom 1     atom 2       distance
                  ------     ------       --------
  bond distance:  Cl_a       Na_a         2.360818




 Principal moments of inertia (u*A**2) and principal axes
 --------------------------------------------------------

   IA       0.000000          0.000000    0.000000    1.000000
   IB      77.307758          0.000000    1.000000    0.000000
   IC      77.307758          1.000000    0.000000    0.000000


 Rotational constants
 --------------------

@    The molecule is linear.

               B =         6537.24 MHz     (    0.218059 cm-1)


@  Nuclear repulsion energy :   41.916033443167 Hartree


  Symmetry Orbitals
  -----------------

  Number of orbitals in each symmetry:          66   40   40   22


  Symmetry  A1 ( 1)

    1     Na_a     1s         1
    2     Na_a     1s         2
    3     Na_a     1s         3
    4     Na_a     1s         4
    5     Na_a     1s         5
    6     Na_a     1s         6
    7     Na_a     1s         7
    8     Na_a     2pz       10
    9     Na_a     2pz       13
   10     Na_a     2pz       16
   11     Na_a     2pz       19
   12     Na_a     2pz       22
   13     Na_a     2pz       25
   14     Na_a     3d0       28
   15     Na_a     3d2+      30
   16     Na_a     3d0       33
   17     Na_a     3d2+      35
   18     Na_a     3d0       38
   19     Na_a     3d2+      40
   20     Na_a     3d0       43
   21     Na_a     3d2+      45
   22     Na_a     4f0       49
   23     Na_a     4f2+      51
   24     Na_a     4f0       56
   25     Na_a     4f2+      58
   26     Na_a     4f0       63
   27     Na_a     4f2+      65
   28     Na_a     5g0       71
   29     Na_a     5g2+      73
   30     Na_a     5g4+      75
   31     Na_a     5g0       80
   32     Na_a     5g2+      82
   33     Na_a     5g4+      84
   34     Cl_a     1s        85
   35     Cl_a     1s        86
   36     Cl_a     1s        87
   37     Cl_a     1s        88
   38     Cl_a     1s        89
   39     Cl_a     1s        90
   40     Cl_a     1s        91
   41     Cl_a     2pz       94
   42     Cl_a     2pz       97
   43     Cl_a     2pz      100
   44     Cl_a     2pz      103
   45     Cl_a     2pz      106
   46     Cl_a     2pz      109
   47     Cl_a     3d0      112
   48     Cl_a     3d2+     114
   49     Cl_a     3d0      117
   50     Cl_a     3d2+     119
   51     Cl_a     3d0      122
   52     Cl_a     3d2+     124
   53     Cl_a     3d0      127
   54     Cl_a     3d2+     129
   55     Cl_a     4f0      133
   56     Cl_a     4f2+     135
   57     Cl_a     4f0      140
   58     Cl_a     4f2+     142
   59     Cl_a     4f0      147
   60     Cl_a     4f2+     149
   61     Cl_a     5g0      155
   62     Cl_a     5g2+     157
   63     Cl_a     5g4+     159
   64     Cl_a     5g0      164
   65     Cl_a     5g2+     166
   66     Cl_a     5g4+     168


  Symmetry  B1 ( 2)

   67     Na_a     2px        8
   68     Na_a     2px       11
   69     Na_a     2px       14
   70     Na_a     2px       17
   71     Na_a     2px       20
   72     Na_a     2px       23
   73     Na_a     3d1+      29
   74     Na_a     3d1+      34
   75     Na_a     3d1+      39
   76     Na_a     3d1+      44
   77     Na_a     4f1+      50
   78     Na_a     4f3+      52
   79     Na_a     4f1+      57
   80     Na_a     4f3+      59
   81     Na_a     4f1+      64
   82     Na_a     4f3+      66
   83     Na_a     5g1+      72
   84     Na_a     5g3+      74
   85     Na_a     5g1+      81
   86     Na_a     5g3+      83
   87     Cl_a     2px       92
   88     Cl_a     2px       95
   89     Cl_a     2px       98
   90     Cl_a     2px      101
   91     Cl_a     2px      104
   92     Cl_a     2px      107
   93     Cl_a     3d1+     113
   94     Cl_a     3d1+     118
   95     Cl_a     3d1+     123
   96     Cl_a     3d1+     128
   97     Cl_a     4f1+     134
   98     Cl_a     4f3+     136
   99     Cl_a     4f1+     141
  100     Cl_a     4f3+     143
  101     Cl_a     4f1+     148
  102     Cl_a     4f3+     150
  103     Cl_a     5g1+     156
  104     Cl_a     5g3+     158
  105     Cl_a     5g1+     165
  106     Cl_a     5g3+     167


  Symmetry  B2 ( 3)

  107     Na_a     2py        9
  108     Na_a     2py       12
  109     Na_a     2py       15
  110     Na_a     2py       18
  111     Na_a     2py       21
  112     Na_a     2py       24
  113     Na_a     3d1-      27
  114     Na_a     3d1-      32
  115     Na_a     3d1-      37
  116     Na_a     3d1-      42
  117     Na_a     4f3-      46
  118     Na_a     4f1-      48
  119     Na_a     4f3-      53
  120     Na_a     4f1-      55
  121     Na_a     4f3-      60
  122     Na_a     4f1-      62
  123     Na_a     5g3-      68
  124     Na_a     5g1-      70
  125     Na_a     5g3-      77
  126     Na_a     5g1-      79
  127     Cl_a     2py       93
  128     Cl_a     2py       96
  129     Cl_a     2py       99
  130     Cl_a     2py      102
  131     Cl_a     2py      105
  132     Cl_a     2py      108
  133     Cl_a     3d1-     111
  134     Cl_a     3d1-     116
  135     Cl_a     3d1-     121
  136     Cl_a     3d1-     126
  137     Cl_a     4f3-     130
  138     Cl_a     4f1-     132
  139     Cl_a     4f3-     137
  140     Cl_a     4f1-     139
  141     Cl_a     4f3-     144
  142     Cl_a     4f1-     146
  143     Cl_a     5g3-     152
  144     Cl_a     5g1-     154
  145     Cl_a     5g3-     161
  146     Cl_a     5g1-     163


  Symmetry  A2 ( 4)

  147     Na_a     3d2-      26
  148     Na_a     3d2-      31
  149     Na_a     3d2-      36
  150     Na_a     3d2-      41
  151     Na_a     4f2-      47
  152     Na_a     4f2-      54
  153     Na_a     4f2-      61
  154     Na_a     5g4-      67
  155     Na_a     5g2-      69
  156     Na_a     5g4-      76
  157     Na_a     5g2-      78
  158     Cl_a     3d2-     110
  159     Cl_a     3d2-     115
  160     Cl_a     3d2-     120
  161     Cl_a     3d2-     125
  162     Cl_a     4f2-     131
  163     Cl_a     4f2-     138
  164     Cl_a     4f2-     145
  165     Cl_a     5g4-     151
  166     Cl_a     5g2-     153
  167     Cl_a     5g4-     160
  168     Cl_a     5g2-     162

  Symmetries of electric field:  B1 (2)  B2 (3)  A1 (1)

  Symmetries of magnetic field:  B2 (3)  B1 (2)  A2 (4)


                     .---------------------------------------.
                     | Starting in Integral Section (HERMIT) |
                     `---------------------------------------'



 ***************************************************************************************
 ****************** Output from **INTEGRALS input processing (HERMIT) ******************
 ***************************************************************************************


 - Using defaults, no **INTEGRALS input found

 Default print level:        1

 Calculation of one-electron Hamiltonian integrals.

 Center of mass  (bohr):      0.000000000000      0.000000000000      0.000000000000
 Operator center (bohr):      0.000000000000      0.000000000000      0.000000000000
 Gauge origin    (bohr):      0.000000000000      0.000000000000      0.000000000000
 Dipole origin   (bohr):      0.000000000000      0.000000000000      0.000000000000


     ************************************************************************
     ************************** Output from HERINT **************************
     ************************************************************************



                      Nuclear contribution to dipole moments
                      --------------------------------------

                 au               Debye          C m (/(10**-30)

      z      0.47482930         1.20689563         4.02577048


  Time used in GABGEN     is       0.28 seconds
  Total CPU  time used in HERMIT:   0.55 seconds
  Total wall time used in HERMIT:   0.55 seconds


                        .----------------------------------.
                        | End of Integral Section (HERMIT) |
                        `----------------------------------'



                   .--------------------------------------------.
                   | Starting in Wave Function Section (SIRIUS) |
                   `--------------------------------------------'


 *** Output from Huckel module :

     Using EWMO model:          T
     Using EHT  model:          F
     Number of Huckel orbitals each symmetry:   12    5    5    1

 EWMO - Energy Weighted Maximum Overlap - is a Huckel type method,
        which normally is better than Extended Huckel Theory.
 Reference: Linderberg and Ohrn, Propagators in Quantum Chemistry (Wiley, 1973)

 Huckel EWMO eigenvalues for symmetry :  1
         -104.883948     -40.478552     -10.608924      -8.072225      -2.801071
           -1.524984      -1.108334      -0.511066      -0.164216      -0.079718
           -0.055556      -0.055019

 Huckel EWMO eigenvalues for symmetry :  2
           -8.072210      -1.518367      -0.513805      -0.107573      -0.054300

 Huckel EWMO eigenvalues for symmetry :  3
           -8.072210      -1.518367      -0.513805      -0.107573      -0.054300

 Huckel EWMO eigenvalues for symmetry :  4
           -0.055556

 **********************************************************************
 *SIRIUS* a direct, restricted step, second order MCSCF program       *
 **********************************************************************

 
     Date and time (Linux)  : Wed Jan 11 14:14:32 2023
     Host name              : cn042                                   

 Title lines from ".mol" input file:
     blah                                                                    
     blah                                                                    

 Print level on unit LUPRI =   2 is   0
 Print level on unit LUW4  =   2 is   5

@    Restricted, closed shell Hartree-Fock calculation.

@    Time-dependent Hartree-Fock calculation (random phase approximation).
 Fock matrices are calculated directly and in parallel without use of integrals on disk.

 Initial molecular orbitals are obtained according to
 ".MOSTART EWMO  " input option

     Wave function specification
     ============================
@    Wave function type        --- HF ---
@    Number of closed shell electrons          28
@    Number of electrons in active shells       0
@    Total charge of the molecule               0

@    Spin multiplicity and 2 M_S                1         0
@    Total number of symmetries                 4 (point group: C2v)
@    Reference state symmetry                   1 (irrep name : A1 )

     Orbital specifications
     ======================
@    Abelian symmetry species          All |    1    2    3    4
@                                          |  A1   B1   B2   A2 
                                       --- |  ---  ---  ---  ---
@    Total number of orbitals          168 |   66   40   40   22
@    Number of basis functions         168 |   66   40   40   22

      ** Automatic occupation of RHF orbitals **

      -- Initial occupation of symmetries is determined from extended Huckel guess.           
      -- Initial occupation of symmetries is :
@    Occupied SCF orbitals              14 |    8    3    3    0

     Maximum number of Fock   iterations      0
     Maximum number of DIIS   iterations     60
     Maximum number of QC-SCF iterations     60
     Threshold for SCF convergence     1.00D-05


 ***********************************************
 ***** DIIS acceleration of SCF iterations *****
 ***********************************************

 C1-DIIS algorithm; max error vectors =    8

 Automatic occupation of symmetries with  28 electrons.

 Iter     Total energy    Error norm  Delta(E)    SCF occupation
 -----------------------------------------------------------------------------
   1  Screening settings (-IFTHRS, JTDIIS, DIFDEN, times)   -7    1    T  5.14D-01  5.14D-01
@  1  -621.419101539       7.69D-01  -6.21D+02     8   3   3   0
      Virial theorem: -V/T =      1.997415
@    MULPOP   Na_a    0.77; Cl_a   -0.77; 
   1  Level shift: doubly occupied orbital energies shifted by -2.00D-01
 -----------------------------------------------------------------------------
   2  Screening settings (-IFTHRS, JTDIIS, DIFDEN, times)  -11    2    F  5.30D-01  5.30D-01
@  2  -621.456375207       2.11D-01  -3.73D-02     8   3   3   0
      Virial theorem: -V/T =      2.000661
@    MULPOP   Na_a    0.69; Cl_a   -0.69; 
   2  Level shift: doubly occupied orbital energies shifted by -1.00D-01
 -----------------------------------------------------------------------------
   3  Screening settings (-IFTHRS, JTDIIS, DIFDEN, times)  -11    3    T  5.22D-01  5.22D-01
@  3  -621.458488332       3.75D-02  -2.11D-03     8   3   3   0
      Virial theorem: -V/T =      1.999915
@    MULPOP   Na_a    0.69; Cl_a   -0.69; 
   3  Level shift: doubly occupied orbital energies shifted by -2.50D-02
 -----------------------------------------------------------------------------
   4  Screening settings (-IFTHRS, JTDIIS, DIFDEN, times)  -11    4    T  5.31D-01  5.32D-01
@  4  -621.458751006       1.01D-02  -2.63D-04     8   3   3   0
      Virial theorem: -V/T =      1.999918
@    MULPOP   Na_a    0.69; Cl_a   -0.69; 
   4  Level shift: doubly occupied orbital energies shifted by -1.25D-02
 -----------------------------------------------------------------------------
   5  Screening settings (-IFTHRS, JTDIIS, DIFDEN, times)  -11    5    T  5.23D-01  5.23D-01
@  5  -621.458779418       2.51D-03  -2.84D-05     8   3   3   0
      Virial theorem: -V/T =      1.999919
@    MULPOP   Na_a    0.69; Cl_a   -0.69; 
 -----------------------------------------------------------------------------
   6  Screening settings (-IFTHRS, JTDIIS, DIFDEN, times)  -11    6    T  5.33D-01  5.33D-01
@  6  -621.458781437       6.68D-04  -2.02D-06     8   3   3   0
      Virial theorem: -V/T =      1.999922
@    MULPOP   Na_a    0.69; Cl_a   -0.69; 
 -----------------------------------------------------------------------------
   7  Screening settings (-IFTHRS, JTDIIS, DIFDEN, times)  -11    7    T  5.23D-01  5.23D-01
@  7  -621.458781563       1.81D-04  -1.26D-07     8   3   3   0
      Virial theorem: -V/T =      1.999921
@    MULPOP   Na_a    0.69; Cl_a   -0.69; 
 -----------------------------------------------------------------------------
   8  Screening settings (-IFTHRS, JTDIIS, DIFDEN, times)  -11    8    T  5.30D-01  5.31D-01
@  8  -621.458781568       3.29D-05  -5.41D-09     8   3   3   0
      Virial theorem: -V/T =      1.999922
@    MULPOP   Na_a    0.69; Cl_a   -0.69; 
 -----------------------------------------------------------------------------
   9  Screening settings (-IFTHRS, JTDIIS, DIFDEN, times)  -11    9    T  5.27D-01  5.27D-01
@  9  -621.458781568       4.99D-06  -2.39D-10     8   3   3   0

@ *** DIIS converged in   9 iterations !
@     Converged SCF energy, gradient:   -621.458781568355    4.99D-06
    - total time used in SIRFCK :              0.00 seconds


 *** SCF orbital energy analysis ***

 Only the 20 lowest virtual orbital energies printed in each symmetry.

 Number of electrons :   28
 Orbital occupations :    8    3    3    0

 Sym       Hartree-Fock orbital energies

1 A1   -104.70229144   -40.49865087   -10.42837581    -7.89485785    -2.82031040
         -1.54304125    -0.94203814    -0.36988443    -0.02018221     0.00862186
          0.02024404     0.04221170     0.05451872     0.06194554     0.07804388
          0.10781318     0.15150427     0.15414686     0.17964198     0.18019935
          0.20452560     0.23513492     0.28433990     0.37416178     0.37714813
          0.39162019     0.41042585     0.42514514

2 B1     -7.89459376    -1.54325924    -0.35349557     0.00954667     0.03275951
          0.06416681     0.09443315     0.15680612     0.16780730     0.17333400
          0.24363728     0.25052893     0.37798730     0.41378108     0.44152459
          0.47859907     0.47958906     0.57685953     0.70961270     0.77004279
          0.89063454     0.96594742     1.06015358

3 B2     -7.89459376    -1.54325924    -0.35349557     0.00954667     0.03275951
          0.06416681     0.09443315     0.15680612     0.16780730     0.17333400
          0.24363728     0.25052893     0.37798730     0.41378108     0.44152459
          0.47859907     0.47958906     0.57685953     0.70961270     0.77004279
          0.89063454     0.96594742     1.06015358

4 A2      0.05451872     0.15414686     0.18019935     0.37714813     0.39162019
          0.41042585     0.44140854     0.53769100     0.78663545     0.81617013
          1.07444683     1.07538505     1.11647758     1.24735835     1.92980779
          1.96086548     2.21666164     2.38860042     4.48682855     4.83349152

    E(LUMO) :    -0.02018221 au (symmetry 1)
  - E(HOMO) :    -0.35349557 au (symmetry 2)
  ------------------------------------------
    gap     :     0.33331336 au

 --- Writing SIRIFC interface file

 CPU and wall time for SCF :       4.783       4.790


                       .-----------------------------------.
                       | --- Final results from SIRIUS --- |
                       `-----------------------------------'


@    Spin multiplicity:           1
@    Spatial symmetry:            1 ( irrep  A1  in C2v )
@    Total charge of molecule:    0

@    Final HF energy:            -621.458781568355                 
@    Nuclear repulsion:            41.916033443167
@    Electronic energy:          -663.374815011521

@    Final gradient norm:           0.000004991558

 
     Date and time (Linux)  : Wed Jan 11 14:14:37 2023
     Host name              : cn042                                   

File label for MO orbitals:  11Jan23   FOCKDIIS

 (Only coefficients > 0.0100 are printed.)

 Molecular orbitals for symmetry species 1  (A1 )
 ------------------------------------------------

    Orbital         1        2        3        4        5        6        7
   1 Na_a:1s     0.0000  -1.0000   0.0000  -0.0000   0.0007  -0.0014   0.0004
   2 Na_a:1s     0.0001  -0.0001   0.0005  -0.0004  -0.9931  -0.0253   0.0133
   3 Na_a:1s     0.0001  -0.0000   0.0006  -0.0006   0.0061  -0.0045  -0.0246
   4 Na_a:1s     0.0005   0.0016   0.0035  -0.0013  -0.0338   0.0347  -0.0230
   5 Na_a:1s     0.0002   0.0001   0.0007  -0.0009   0.0055   0.0433  -0.0221
   8 Na_a:2pz    0.0002   0.0024   0.0012  -0.0014  -0.0139  -0.9864   0.0374
   9 Na_a:2pz    0.0002   0.0022   0.0011  -0.0013  -0.0274   0.0118  -0.0198
  10 Na_a:2pz    0.0005   0.0008   0.0032  -0.0014  -0.0119   0.0369  -0.0228
  11 Na_a:2pz    0.0000   0.0002  -0.0003  -0.0005  -0.0005   0.0243  -0.0153
  14 Na_a:3d0    0.0001   0.0005   0.0002  -0.0005  -0.0043   0.0228  -0.0161
  18 Na_a:3d0    0.0000   0.0001   0.0000  -0.0004   0.0004   0.0217  -0.0145
  34 Cl_a:1s     1.0000  -0.0000   0.0000  -0.0001   0.0002   0.0002  -0.0001
  35 Cl_a:1s    -0.0001  -0.0001  -1.0000  -0.0016   0.0017   0.0018   0.0024
  36 Cl_a:1s    -0.0003  -0.0002  -0.0008  -0.0005   0.0021  -0.0180  -0.9629
  38 Cl_a:1s     0.0006   0.0006   0.0039  -0.0002  -0.0097   0.0012   0.0237
  39 Cl_a:1s    -0.0006  -0.0007  -0.0049   0.0021   0.0062  -0.0337  -0.0310
  40 Cl_a:1s    -0.0004  -0.0013  -0.0014   0.0014   0.0221  -0.0621   0.0133
  41 Cl_a:2pz    0.0000   0.0001   0.0017  -1.0007   0.0000   0.0018  -0.0019
  42 Cl_a:2pz    0.0002   0.0003   0.0027  -0.0013   0.0020   0.0222   0.0168
  45 Cl_a:2pz    0.0004   0.0010   0.0022  -0.0002  -0.0200   0.0167   0.0049

    Orbital         8        9       10       11       12       13       14
   2 Na_a:1s    -0.0166   0.0020  -0.0099   0.0208   0.0213   0.0000  -0.0076
   3 Na_a:1s     0.1115  -0.1319   0.0752   0.0225  -0.0345   0.0000  -0.1425
   4 Na_a:1s     0.1265  -0.0871   0.0036   0.4182  -0.4297   0.0000   0.3119
   5 Na_a:1s     0.0659  -0.1104  -0.1782  -1.9394   3.6577   0.0000  -1.3492
   6 Na_a:1s    -0.0030  -0.4417   1.5518   1.4937  -0.8996  -0.0000   2.9890
   7 Na_a:1s    -0.0000  -0.2777  -1.3838  -1.1075   0.3209   0.0000  -1.0228
   8 Na_a:2pz   -0.0285  -0.0097   0.0523   0.0906  -0.0492   0.0000   0.2501
   9 Na_a:2pz    0.0579   0.0455   0.0152   0.0809  -0.0345   0.0000   0.2810
  10 Na_a:2pz    0.0902   0.1149  -0.3244   0.0316   0.3733   0.0000  -0.2960
  11 Na_a:2pz    0.0371   0.2515   0.4313  -1.0939   3.4928   0.0000   2.4770
  12 Na_a:2pz   -0.0074   0.1143  -1.2478   1.6548  -3.8119  -0.0000  -2.9752
  13 Na_a:2pz    0.0025   0.1644   1.4143  -1.7371   2.3796   0.0000   1.3747
  14 Na_a:3d0    0.0416   0.0082   0.0114  -0.0203   0.0145   0.0000   0.1090
  15 Na_a:3d2+  -0.0000   0.0000   0.0000   0.0000   0.0000  -0.1104  -0.0000
  16 Na_a:3d0    0.0020  -0.0137  -0.1851   0.1639   0.1316   0.0000  -0.6287
  17 Na_a:3d2+   0.0000  -0.0000  -0.0000  -0.0000  -0.0000   0.4480   0.0000
  18 Na_a:3d0    0.0368   0.0171   0.2479  -0.5183   0.8480   0.0000   0.9040
  19 Na_a:3d2+  -0.0000   0.0000   0.0000   0.0000  -0.0000  -0.7352  -0.0000
  20 Na_a:3d0   -0.0020  -0.0807  -0.1023   0.5012   0.8114   0.0000  -0.7581
  21 Na_a:3d2+   0.0000  -0.0000  -0.0000  -0.0000   0.0000   1.3308   0.0000
  22 Na_a:4f0    0.0087   0.0006  -0.0038   0.0146  -0.0103   0.0000   0.0141
  23 Na_a:4f2+  -0.0000   0.0000  -0.0000  -0.0000  -0.0000  -0.0181   0.0000
  24 Na_a:4f0    0.0135   0.0046  -0.0352  -0.0412   0.0829   0.0000  -0.1353
  25 Na_a:4f2+  -0.0000  -0.0000   0.0000  -0.0000  -0.0000   0.0533   0.0000
  26 Na_a:4f0    0.0075  -0.0008   0.0463  -0.0665   0.2830   0.0000   0.1944
  27 Na_a:4f2+   0.0000  -0.0000  -0.0000  -0.0000  -0.0000  -0.1568   0.0000
  28 Na_a:5g0    0.0045   0.0007  -0.0083   0.0040  -0.0127   0.0000  -0.0188
  31 Na_a:5g0    0.0034   0.0011   0.0024  -0.0245   0.0661   0.0000  -0.0095
  32 Na_a:5g2+  -0.0000  -0.0000  -0.0000  -0.0000  -0.0000  -0.0103   0.0000
  35 Cl_a:1s    -0.0018   0.0001   0.0050   0.0040   0.0040  -0.0000   0.0157
  36 Cl_a:1s    -0.0699   0.0367  -0.0132   0.0339   0.0525  -0.0000   0.0629
  37 Cl_a:1s    -0.0023  -0.0003   0.0086   0.0052   0.0037  -0.0000   0.0242
  38 Cl_a:1s    -0.0056   0.0076  -0.0543  -0.0207  -0.0070   0.0000  -0.1322
  39 Cl_a:1s    -0.0640  -0.0135   0.1689   0.0767  -0.0805  -0.0000   0.5372
  40 Cl_a:1s    -0.0778  -0.0289  -0.2688   0.7860  -3.8636  -0.0000  -1.6749
  41 Cl_a:2pz    0.0049  -0.0002  -0.0005  -0.0015  -0.0113  -0.0000  -0.0011
  42 Cl_a:2pz   -0.9013  -0.0852   0.0498  -0.0087  -0.1015  -0.0000  -0.0439
  43 Cl_a:2pz    0.0013  -0.0001   0.0016   0.0033   0.0250   0.0000   0.0025
  44 Cl_a:2pz    0.0085   0.0012  -0.0037  -0.0019  -0.0165  -0.0000  -0.0170
  45 Cl_a:2pz   -0.0392  -0.0043  -0.1302   0.0433   0.3662   0.0000  -0.2372
  46 Cl_a:2pz   -0.0161   0.0040   0.0974  -0.3521   0.5284   0.0000   0.8578
  49 Cl_a:3d0    0.0043  -0.0004   0.0003  -0.0007   0.0106   0.0000  -0.0015
  51 Cl_a:3d0    0.0145  -0.0020   0.0050   0.0005  -0.0276  -0.0000  -0.0025
  53 Cl_a:3d0    0.0166  -0.0003   0.0418  -0.0482   0.0275  -0.0000   0.0021
  54 Cl_a:3d2+   0.0000   0.0000   0.0000   0.0000   0.0000   0.0226  -0.0000
  59 Cl_a:4f0   -0.0085   0.0000  -0.0014   0.0038   0.0051   0.0000   0.0137

    Orbital        15       16       17       18
   1 Na_a:1s    -0.0011   0.0126  -0.0220   0.0000
   2 Na_a:1s    -0.0165   0.1450  -0.2505   0.0000
   3 Na_a:1s    -0.0822   0.3094  -0.3329   0.0000
   4 Na_a:1s     0.5267   0.2853  -3.5197  -0.0000
   5 Na_a:1s    -9.8061  13.6502  -9.3549   0.0000
   6 Na_a:1s     5.0343  -2.7624   2.0965  -0.0000
   7 Na_a:1s    -0.8661   0.2211   0.0675   0.0000
   8 Na_a:2pz    0.1497   0.0079  -0.5261  -0.0000
   9 Na_a:2pz    0.1699   0.0246  -0.5017  -0.0000
  10 Na_a:2pz   -1.0025   2.3267  -4.1622   0.0000
  11 Na_a:2pz   -4.1581   9.2983  -2.7497   0.0000
  12 Na_a:2pz    3.9254  -4.5550   0.9863  -0.0000
  13 Na_a:2pz   -1.5841   1.6614   0.0922   0.0000
  14 Na_a:3d0   -0.1844   0.0709  -0.5061  -0.0000
  15 Na_a:3d2+  -0.0000   0.0000   0.0000  -0.3299
  16 Na_a:3d0    0.2659   0.6662  -0.3306   0.0000
  17 Na_a:3d2+   0.0000  -0.0000  -0.0000   1.1041
  18 Na_a:3d0   -2.0632   2.0512  -1.6993   0.0000
  19 Na_a:3d2+  -0.0000   0.0000  -0.0000  -2.1055
  20 Na_a:3d0    1.4263   0.6442   0.9455   0.0000
  21 Na_a:3d2+   0.0000  -0.0000   0.0000   1.0576
  22 Na_a:4f0    0.0003   0.0378  -0.1654  -0.0000
  23 Na_a:4f2+   0.0000   0.0000   0.0000   0.0700
  24 Na_a:4f0   -0.1498   0.1938   0.0438   0.0000
  25 Na_a:4f2+   0.0000   0.0000   0.0000  -0.1733
  26 Na_a:4f0   -0.3324   1.0307  -0.4045   0.0000
  27 Na_a:4f2+   0.0000   0.0000  -0.0000   0.7230
  28 Na_a:5g0   -0.0035  -0.0139  -0.0516   0.0000
  31 Na_a:5g0   -0.0612   0.1405   0.1105   0.0000
  35 Cl_a:1s     0.0153  -0.0083   0.0142  -0.0000
  36 Cl_a:1s    -0.0212  -0.1273   0.0244  -0.0000
  37 Cl_a:1s     0.0270  -0.0192   0.0347   0.0000
  38 Cl_a:1s    -0.1678   0.1087  -0.2422   0.0000
  39 Cl_a:1s     0.4015  -0.4387   0.1837  -0.0000
  40 Cl_a:1s     5.3938 -13.4128  10.5786  -0.0000
  41 Cl_a:2pz   -0.0037  -0.0273   0.0031  -0.0000
  42 Cl_a:2pz   -0.0677  -0.0301   0.1699  -0.0000
  43 Cl_a:2pz    0.0064   0.0641  -0.0041   0.0000
  44 Cl_a:2pz    0.0144  -0.0770   0.0764   0.0000
  45 Cl_a:2pz   -0.5872   1.8405  -2.2452   0.0000
  46 Cl_a:2pz   -2.5123   3.0424  -5.1736   0.0000
  49 Cl_a:3d0   -0.0088   0.0298  -0.0177  -0.0000
  51 Cl_a:3d0    0.0286  -0.1054   0.0938  -0.0000
  52 Cl_a:3d2+   0.0000  -0.0000  -0.0000   0.0262
  53 Cl_a:3d0    0.1477  -0.3406   1.1290  -0.0000
  54 Cl_a:3d2+  -0.0000  -0.0000   0.0000  -0.1003
  57 Cl_a:4f0    0.0035  -0.0138   0.0219  -0.0000
  59 Cl_a:4f0   -0.0265   0.0676  -0.1485   0.0000
  64 Cl_a:5g0    0.0064  -0.0092   0.0170  -0.0000

 Molecular orbitals for symmetry species 2  (B1 )
 ------------------------------------------------

    Orbital         1        2        3        4        5        6        7
   1 Na_a:2px    0.0003   0.9891   0.0122  -0.0559   0.1495   0.1240   0.3548
   2 Na_a:2px    0.0003  -0.0097   0.0410  -0.0721   0.1050   0.0983   0.4168
   3 Na_a:2px   -0.0000   0.0045   0.0269   0.0554  -0.1621  -0.3323  -0.2414
   4 Na_a:2px   -0.0001  -0.0008  -0.0022  -0.2428   0.7361  -0.6279   2.9227
   5 Na_a:2px    0.0000   0.0004   0.0027   0.8298  -2.8551  -1.4632  -3.7959
   6 Na_a:2px   -0.0000  -0.0002  -0.0016  -1.5171   2.3201   0.7839   1.9466
   7 Na_a:3d1+   0.0001  -0.0168   0.0288  -0.0103  -0.0181   0.0922  -0.1254
   8 Na_a:3d1+  -0.0001   0.0166  -0.0118   0.0861   0.1559  -0.5313   0.3990
   9 Na_a:3d1+  -0.0001  -0.0072   0.0112  -0.0835   0.0187   0.3374  -0.4744
  10 Na_a:3d1+  -0.0000   0.0016  -0.0028   0.3651   0.5015  -1.7045   0.4404
  11 Na_a:4f1+   0.0001  -0.0048   0.0097   0.0079  -0.0116  -0.0063  -0.0247
  13 Na_a:4f1+  -0.0001   0.0029  -0.0007  -0.0097   0.0577  -0.0824   0.1027
  15 Na_a:4f1+  -0.0001   0.0001  -0.0007   0.0242   0.0303  -0.1836   0.1334
  17 Na_a:5g1+   0.0001  -0.0024   0.0046   0.0030  -0.0029  -0.0034  -0.0108
  19 Na_a:5g1+  -0.0001   0.0021  -0.0027  -0.0025   0.0324  -0.0593   0.0742
  21 Cl_a:2px   -1.0002   0.0014  -0.0025  -0.0045   0.0052   0.0151   0.0139
  22 Cl_a:2px    0.0010   0.0072   0.9181   0.0197   0.0602   0.1403  -0.0133
  23 Cl_a:2px    0.0003  -0.0033  -0.0041   0.0102  -0.0110  -0.0312  -0.0324
  24 Cl_a:2px    0.0000   0.0000   0.0001  -0.0022   0.0051  -0.0018   0.0132
  25 Cl_a:2px    0.0003  -0.0028   0.0699   0.0288  -0.1201   0.1448  -0.2981
  26 Cl_a:2px    0.0001   0.0000   0.0309  -0.1480  -0.2230   1.5440  -0.3679
  29 Cl_a:3d1+   0.0002  -0.0049  -0.0106   0.0041  -0.0013   0.0096  -0.0212
  30 Cl_a:3d1+  -0.0001   0.0000  -0.0112   0.0162   0.0828  -0.2740   0.1386
  33 Cl_a:4f1+   0.0000   0.0003   0.0022   0.0023   0.0013  -0.0170   0.0008
  35 Cl_a:4f1+  -0.0001   0.0031   0.0007  -0.0072  -0.0032   0.0442   0.0050

    Orbital         8        9       10       11       12       13
   1 Na_a:2px   -0.0306   0.0000   0.2926  -0.3768  -1.0871   0.2417
   2 Na_a:2px   -0.0129   0.0000   0.2889  -0.3412  -0.8577   0.2421
   3 Na_a:2px    0.4029  -0.0000  -1.0636   0.1099   1.8685  -0.8660
   4 Na_a:2px    1.6820   0.0000  -3.1185  -3.8183  -3.2678  -1.3702
   5 Na_a:2px   -0.3340  -0.0000  -1.0234   0.9600   2.7267   0.0787
   6 Na_a:2px    0.1855   0.0000   0.3766  -0.4417  -1.1930  -0.0475
   7 Na_a:3d1+   0.2394  -0.0000   0.0526  -0.3140   0.2688  -0.4954
   8 Na_a:3d1+  -0.4783   0.0000  -1.0679   0.5268  -1.4131   2.0802
   9 Na_a:3d1+   2.1842  -0.0000  -1.0330  -3.2459   0.8844  -3.3947
  10 Na_a:3d1+  -0.2709   0.0000  -1.9377  -0.3219  -0.2106   0.3602
  11 Na_a:4f1+  -0.0973   0.0000  -0.0744  -0.1484   0.1277   0.1250
  12 Na_a:4f3+  -0.0000  -0.1553  -0.0000  -0.0000   0.0000   0.0000
  13 Na_a:4f1+   0.4391  -0.0000  -0.2921   0.1731  -0.5111  -0.8876
  14 Na_a:4f3+   0.0000   0.4515   0.0000   0.0000  -0.0000  -0.0000
  15 Na_a:4f1+  -0.3602   0.0000  -1.7169  -2.0382   0.2266  -0.2726
  16 Na_a:4f3+  -0.0000  -1.2311  -0.0000  -0.0000   0.0000   0.0000
  17 Na_a:5g1+  -0.0194   0.0000  -0.0100  -0.0240   0.0317   0.0043
  18 Na_a:5g3+  -0.0000  -0.0243   0.0000  -0.0000  -0.0000  -0.0000
  19 Na_a:5g1+   0.1745  -0.0000  -0.3003  -0.1287  -0.2622  -0.2076
  20 Na_a:5g3+   0.0000   0.0851   0.0000   0.0000   0.0000  -0.0000
  21 Cl_a:2px   -0.0075  -0.0000  -0.0130  -0.1031  -0.0246  -0.0310
  22 Cl_a:2px   -0.0057  -0.0000  -0.2218  -0.1737  -0.1667  -0.1233
  23 Cl_a:2px    0.0158   0.0000   0.0263   0.2388   0.0523   0.0711
  24 Cl_a:2px    0.0133   0.0000  -0.0569  -0.1279  -0.0246  -0.0630
  25 Cl_a:2px   -0.4076   0.0000   1.1249   1.6876   0.7569   1.1053
  26 Cl_a:2px   -2.0671   0.0000   5.6658   3.2671  -0.0718   1.7738
  27 Cl_a:3d1+  -0.0096   0.0000   0.0042   0.0045  -0.0095  -0.0235
  28 Cl_a:3d1+   0.0090  -0.0000  -0.0121   0.0085  -0.0234  -0.0709
  29 Cl_a:3d1+  -0.0774   0.0000   0.0475   0.0128  -0.0101   0.0158
  30 Cl_a:3d1+   0.5827  -0.0000  -1.2009  -0.5575  -0.4946  -1.1510
  33 Cl_a:4f1+   0.0267  -0.0000  -0.0546   0.0020  -0.0026  -0.0307
  35 Cl_a:4f1+  -0.0573   0.0000   0.1670   0.0648  -0.0060   0.0984
  39 Cl_a:5g1+  -0.0000   0.0000  -0.0136  -0.0329   0.0237  -0.0177

 Molecular orbitals for symmetry species 3  (B2 )
 ------------------------------------------------

    Orbital         1        2        3        4        5        6        7
   1 Na_a:2py    0.0003   0.9891   0.0122  -0.0559   0.1495   0.1240   0.3548
   2 Na_a:2py    0.0003  -0.0097   0.0410  -0.0721   0.1050   0.0983   0.4168
   3 Na_a:2py   -0.0000   0.0045   0.0269   0.0554  -0.1621  -0.3323  -0.2414
   4 Na_a:2py   -0.0001  -0.0008  -0.0022  -0.2428   0.7361  -0.6279   2.9227
   5 Na_a:2py    0.0000   0.0004   0.0027   0.8298  -2.8551  -1.4632  -3.7959
   6 Na_a:2py   -0.0000  -0.0002  -0.0016  -1.5171   2.3201   0.7839   1.9466
   7 Na_a:3d1-   0.0001  -0.0168   0.0288  -0.0103  -0.0181   0.0922  -0.1254
   8 Na_a:3d1-  -0.0001   0.0166  -0.0118   0.0861   0.1559  -0.5313   0.3990
   9 Na_a:3d1-  -0.0001  -0.0072   0.0112  -0.0835   0.0187   0.3374  -0.4744
  10 Na_a:3d1-  -0.0000   0.0016  -0.0028   0.3651   0.5015  -1.7045   0.4404
  12 Na_a:4f1-   0.0001  -0.0048   0.0097   0.0079  -0.0116  -0.0063  -0.0247
  14 Na_a:4f1-  -0.0001   0.0029  -0.0007  -0.0097   0.0577  -0.0824   0.1027
  16 Na_a:4f1-  -0.0001   0.0001  -0.0007   0.0242   0.0303  -0.1836   0.1334
  18 Na_a:5g1-   0.0001  -0.0024   0.0046   0.0030  -0.0029  -0.0034  -0.0108
  20 Na_a:5g1-  -0.0001   0.0021  -0.0027  -0.0025   0.0324  -0.0593   0.0742
  21 Cl_a:2py   -1.0002   0.0014  -0.0025  -0.0045   0.0052   0.0151   0.0139
  22 Cl_a:2py    0.0010   0.0072   0.9181   0.0197   0.0602   0.1403  -0.0133
  23 Cl_a:2py    0.0003  -0.0033  -0.0041   0.0102  -0.0110  -0.0312  -0.0324
  24 Cl_a:2py    0.0000   0.0000   0.0001  -0.0022   0.0051  -0.0018   0.0132
  25 Cl_a:2py    0.0003  -0.0028   0.0699   0.0288  -0.1201   0.1448  -0.2981
  26 Cl_a:2py    0.0001   0.0000   0.0309  -0.1480  -0.2230   1.5440  -0.3679
  29 Cl_a:3d1-   0.0002  -0.0049  -0.0106   0.0041  -0.0013   0.0096  -0.0212
  30 Cl_a:3d1-  -0.0001   0.0000  -0.0112   0.0162   0.0828  -0.2740   0.1386
  34 Cl_a:4f1-   0.0000   0.0003   0.0022   0.0023   0.0013  -0.0170   0.0008
  36 Cl_a:4f1-  -0.0001   0.0031   0.0007  -0.0072  -0.0032   0.0442   0.0050

    Orbital         8        9       10       11       12       13
   1 Na_a:2py   -0.0306   0.0000   0.2926  -0.3768  -1.0871  -0.2417
   2 Na_a:2py   -0.0129   0.0000   0.2889  -0.3412  -0.8577  -0.2421
   3 Na_a:2py    0.4029  -0.0000  -1.0636   0.1099   1.8685   0.8660
   4 Na_a:2py    1.6820   0.0000  -3.1185  -3.8183  -3.2678   1.3702
   5 Na_a:2py   -0.3340  -0.0000  -1.0234   0.9600   2.7267  -0.0787
   6 Na_a:2py    0.1855   0.0000   0.3766  -0.4417  -1.1930   0.0475
   7 Na_a:3d1-   0.2394  -0.0000   0.0526  -0.3140   0.2688   0.4954
   8 Na_a:3d1-  -0.4783   0.0000  -1.0679   0.5268  -1.4131  -2.0802
   9 Na_a:3d1-   2.1842  -0.0000  -1.0330  -3.2459   0.8844   3.3947
  10 Na_a:3d1-  -0.2709   0.0000  -1.9377  -0.3219  -0.2106  -0.3602
  11 Na_a:4f3-  -0.0000  -0.1553  -0.0000  -0.0000  -0.0000  -0.0000
  12 Na_a:4f1-  -0.0973   0.0000  -0.0744  -0.1484   0.1277  -0.1250
  13 Na_a:4f3-   0.0000   0.4515   0.0000   0.0000   0.0000   0.0000
  14 Na_a:4f1-   0.4391  -0.0000  -0.2921   0.1731  -0.5111   0.8876
  15 Na_a:4f3-  -0.0000  -1.2311  -0.0000  -0.0000  -0.0000  -0.0000
  16 Na_a:4f1-  -0.3602   0.0000  -1.7169  -2.0382   0.2266   0.2726
  17 Na_a:5g3-  -0.0000  -0.0243  -0.0000  -0.0000   0.0000  -0.0000
  18 Na_a:5g1-  -0.0194   0.0000  -0.0100  -0.0240   0.0317  -0.0043
  19 Na_a:5g3-   0.0000   0.0851   0.0000   0.0000  -0.0000   0.0000
  20 Na_a:5g1-   0.1745  -0.0000  -0.3003  -0.1287  -0.2622   0.2076
  21 Cl_a:2py   -0.0075  -0.0000  -0.0130  -0.1031  -0.0246   0.0310
  22 Cl_a:2py   -0.0057  -0.0000  -0.2218  -0.1737  -0.1667   0.1233
  23 Cl_a:2py    0.0158   0.0000   0.0263   0.2388   0.0523  -0.0711
  24 Cl_a:2py    0.0133   0.0000  -0.0569  -0.1279  -0.0246   0.0630
  25 Cl_a:2py   -0.4076   0.0000   1.1249   1.6876   0.7569  -1.1053
  26 Cl_a:2py   -2.0671   0.0000   5.6658   3.2671  -0.0718  -1.7738
  27 Cl_a:3d1-  -0.0096   0.0000   0.0042   0.0045  -0.0095   0.0235
  28 Cl_a:3d1-   0.0090  -0.0000  -0.0121   0.0085  -0.0234   0.0709
  29 Cl_a:3d1-  -0.0774   0.0000   0.0475   0.0128  -0.0101  -0.0158
  30 Cl_a:3d1-   0.5827  -0.0000  -1.2009  -0.5575  -0.4946   1.1510
  34 Cl_a:4f1-   0.0267  -0.0000  -0.0546   0.0020  -0.0026   0.0307
  36 Cl_a:4f1-  -0.0573  -0.0000   0.1670   0.0648  -0.0060  -0.0984
  40 Cl_a:5g1-  -0.0000   0.0000  -0.0136  -0.0329   0.0237   0.0177

 Molecular orbitals for symmetry species 4  (A2 )
 ------------------------------------------------

    Orbital         1        2        3        4        5        6        7
   1 Na_a:3d2-  -0.1104  -0.3299   0.2085  -0.5618  -0.3172  -0.0000   0.0201
   2 Na_a:3d2-   0.4480   1.1041  -0.6509   2.9576   1.6757  -0.0000  -0.2850
   3 Na_a:3d2-  -0.7352  -2.1054   1.4658  -2.8732  -1.1240   0.0000   0.8088
   4 Na_a:3d2-   1.3308   1.0576  -0.5676   0.7626   0.3707  -0.0000  -0.1275
   5 Na_a:4f2-  -0.0181   0.0700   0.1277   0.0532   0.0293  -0.0000   0.2709
   6 Na_a:4f2-   0.0533  -0.1733  -0.3853  -0.3014  -0.1298  -0.0000  -0.9581
   7 Na_a:4f2-  -0.1568   0.7230   1.0812  -0.0481   0.3845   0.0000   1.0659
   8 Na_a:5g4-   0.0000  -0.0000   0.0000   0.0000  -0.0000   0.3215  -0.0000
   9 Na_a:5g2-   0.0065   0.0086   0.0001  -0.0785   0.1631  -0.0000  -0.2185
  10 Na_a:5g4-  -0.0000  -0.0000   0.0000   0.0000  -0.0000  -1.2095  -0.0000
  11 Na_a:5g2-  -0.0103  -0.0097  -0.0117   0.2624  -0.4611   0.0000   1.1411
  12 Cl_a:3d2-   0.0006   0.0017   0.0137   0.0094  -0.0123   0.0000  -0.0114
  13 Cl_a:3d2-   0.0042  -0.0097  -0.0107   0.0714  -0.1206  -0.0000  -0.0745
  14 Cl_a:3d2-  -0.0045   0.0262   0.0993  -0.0794   0.1539   0.0000   0.1025
  15 Cl_a:3d2-   0.0226  -0.1003  -0.2106   0.4823  -0.8895  -0.0000  -1.2223
  17 Cl_a:4f2-  -0.0020  -0.0015   0.0019  -0.0082  -0.0040   0.0000  -0.0362
  18 Cl_a:4f2-   0.0068   0.0082  -0.0136   0.0037   0.0348  -0.0000   0.0668
  22 Cl_a:5g2-  -0.0014  -0.0035  -0.0013   0.0116  -0.0324  -0.0000   0.0214

    Orbital         8        9       10
   1 Na_a:3d2-  -0.0440  -3.0046   0.5120
   2 Na_a:3d2-   0.6101   4.6256  -0.8776
   3 Na_a:3d2-   0.4161  -2.5472   0.8092
   4 Na_a:3d2-   0.0030   0.5653  -0.1221
   5 Na_a:4f2-  -0.3697   0.1771   0.1300
   6 Na_a:4f2-   1.7674  -0.0797  -0.2775
   7 Na_a:4f2-   0.0949   0.1017   0.3908
   9 Na_a:5g2-  -0.1955   0.0737   0.3635
  11 Na_a:5g2-   1.3259   0.0288  -0.1732
  12 Cl_a:3d2-   0.0162   0.0280   0.1971
  13 Cl_a:3d2-  -0.0573   0.0027  -0.0345
  14 Cl_a:3d2-   0.2220   0.1513   1.2126
  15 Cl_a:3d2-  -2.0406  -0.2603  -1.0635
  16 Cl_a:4f2-   0.0131   0.0056   0.0002
  17 Cl_a:4f2-  -0.1105  -0.0301  -0.0236
  18 Cl_a:4f2-   0.2633   0.1096   0.0947
  20 Cl_a:5g2-   0.0003   0.0036   0.0169
  22 Cl_a:5g2-   0.0047  -0.0159  -0.0566

  Total CPU  time used in SIRIUS :   4.82 seconds
  Total wall time used in SIRIUS :   4.83 seconds

 
     Date and time (Linux)  : Wed Jan 11 14:14:37 2023
     Host name              : cn042                                   


                     .---------------------------------------.
                     | End of Wave Function Section (SIRIUS) |
                     `---------------------------------------'



                 .------------------------------------------------.
                 | Starting in Dynamic Property Section (RESPONS) |
                 `------------------------------------------------'


 ----------------------------------------------------------------------------------------
  RESPONSE  -  an MCSCF, MC-srDFT, DFT, SOPPA and SOPPA-srDFT response property program
 ----------------------------------------------------------------------------------------


 -------- OUTPUT FROM RESPONSE INPUT PROCESSING --------




 Linear Response calculation
 ---------------------------

 Print level                                    : IPRLR  =   2
 Maximum number of iterations                   : MAXITL =  60
 Threshold for relative convergence             : THCLR  = 1.000D-03
 Maximum iterations in optimal orbital algorithm: MAXITO =   5

  9 B-frequencies  0.000000D+00  1.227675D-02  2.455350D-02  3.683025D-02  4.910700D-02
  6.138375D-02  7.366050D-02  8.593725D-02  9.821400D-02

    1 second order properties calculated with symmetry no.    1 and labels:

          ZDIPLEN 

    1 second order properties calculated with symmetry no.    2 and labels:

          XDIPLEN 

    1 second order properties calculated with symmetry no.    3 and labels:

          YDIPLEN 


   SCF energy         :     -621.458781568354539
 -- inactive part     :     -663.374815011521378
 -- nuclear repulsion :       41.916033443166796


                     ***************************************
                     *** RHF response calculation (TDHF) ***
                     ***************************************

 ----------------------------------------------------------------
 ----- Linear response calculation
 ----- Symmetry of excitation/property operator(s)    1  ( A1 )
 ----------------------------------------------------------------

 Number of excitations of this symmetry            0
 Number of response properties of this symmetry    1
 Number of C6/C8 properties of this symmetry       0


 Perturbation symmetry.     KSYMOP:           1
 Perturbation spin symmetry.TRPLET:           F
 Orbital variables.         KZWOPT:         686
 Configuration variables.   KZCONF:           0
 Total number of variables. KZVAR :         686


 RSPLR -- linear response calculation for symmetry 1  ( A1 )
 RSPLR -- operator label : ZDIPLEN 
 RSPLR -- operator spin  :   0
 RSPLR -- frequencies    :     0.000000  0.012277  0.024553  0.036830  0.049107
                               0.061384  0.073660  0.085937  0.098214



 ---  SOLVING SETS OF LINEAR EQUATIONS FOR LINEAR RESPONSE PROPERTIES ---

 Operator symmetry = 1  ( A1 ); triplet =   F


 ** RSPCTL MICROITERATION NUMBER    1

       No.  Residual tot.,    conf., and orb.    Bnorm      Frequency 
      ----------------------------------------------------------------
         1    2.32739D+00  0.00D+00  2.33D+00  5.40D+00    0.00000D+00
         2    2.32940D+00  0.00D+00  2.33D+00  5.42D+00    1.22767D-02
         3    2.33547D+00  0.00D+00  2.34D+00  5.47D+00    2.45535D-02
         4    2.34577D+00  0.00D+00  2.35D+00  5.55D+00    3.68302D-02
         5    2.36060D+00  0.00D+00  2.36D+00  5.66D+00    4.91070D-02
         6    2.38039D+00  0.00D+00  2.38D+00  5.82D+00    6.13838D-02
         7    2.40579D+00  0.00D+00  2.41D+00  6.02D+00    7.36605D-02
         8    2.43774D+00  0.00D+00  2.44D+00  6.27D+00    8.59372D-02
         9    2.47755D+00  0.00D+00  2.48D+00  6.59D+00    9.82140D-02

 ** RSPCTL MICROITERATION NUMBER    2

       No.  Residual tot.,    conf., and orb.    Bnorm      Frequency 
      ----------------------------------------------------------------
         1    4.58230D-01  0.00D+00  4.58D-01  5.77D+00    0.00000D+00
         2    4.59536D-01  0.00D+00  4.60D-01  5.79D+00    1.22767D-02
         3    4.63502D-01  0.00D+00  4.64D-01  5.84D+00    2.45535D-02
         4    4.70279D-01  0.00D+00  4.70D-01  5.93D+00    3.68302D-02
         5    4.80136D-01  0.00D+00  4.80D-01  6.06D+00    4.91070D-02
         6    4.93485D-01  0.00D+00  4.93D-01  6.24D+00    6.13838D-02
         7    5.10932D-01  0.00D+00  5.11D-01  6.47D+00    7.36605D-02
         8    5.33349D-01  0.00D+00  5.33D-01  6.77D+00    8.59372D-02
         9    5.62001D-01  0.00D+00  5.62D-01  7.14D+00    9.82140D-02

 ** RSPCTL MICROITERATION NUMBER    3

       No.  Residual tot.,    conf., and orb.    Bnorm      Frequency 
      ----------------------------------------------------------------
         1    8.26425D-02  0.00D+00  8.26D-02  5.80D+00    0.00000D+00
         2    8.29998D-02  0.00D+00  8.30D-02  5.82D+00    1.22767D-02
         3    8.40875D-02  0.00D+00  8.41D-02  5.87D+00    2.45535D-02
         4    8.59538D-02  0.00D+00  8.60D-02  5.96D+00    3.68302D-02
         5    8.86851D-02  0.00D+00  8.87D-02  6.10D+00    4.91070D-02
         6    9.24148D-02  0.00D+00  9.24D-02  6.28D+00    6.13838D-02
         7    9.73400D-02  0.00D+00  9.73D-02  6.52D+00    7.36605D-02
         8    1.03747D-01  0.00D+00  1.04D-01  6.82D+00    8.59372D-02
         9    1.12058D-01  0.00D+00  1.12D-01  7.20D+00    9.82140D-02

 ** RSPCTL MICROITERATION NUMBER    4

       No.  Residual tot.,    conf., and orb.    Bnorm      Frequency 
      ----------------------------------------------------------------
         1    1.17847D-02  0.00D+00  1.18D-02  5.80D+00    0.00000D+00
         2    1.18463D-02  0.00D+00  1.18D-02  5.82D+00    1.22767D-02
         3    1.20342D-02  0.00D+00  1.20D-02  5.87D+00    2.45535D-02
         4    1.23576D-02  0.00D+00  1.24D-02  5.96D+00    3.68302D-02
         5    1.28333D-02  0.00D+00  1.28D-02  6.10D+00    4.91070D-02
         6    1.34873D-02  0.00D+00  1.35D-02  6.28D+00    6.13838D-02
         7    1.43584D-02  0.00D+00  1.44D-02  6.52D+00    7.36605D-02
         8    1.55032D-02  0.00D+00  1.55D-02  6.82D+00    8.59372D-02
         9    1.70058D-02  0.00D+00  1.70D-02  7.20D+00    9.82140D-02

 ** RSPCTL MICROITERATION NUMBER    5

       No.  Residual tot.,    conf., and orb.    Bnorm      Frequency 
      ----------------------------------------------------------------
         1    1.01174D-03  0.00D+00  1.01D-03  5.80D+00    0.00000D+00
         2    1.01904D-03  0.00D+00  1.02D-03  5.82D+00    1.22767D-02
         3    1.04137D-03  0.00D+00  1.04D-03  5.87D+00    2.45535D-02
         4    1.07999D-03  0.00D+00  1.08D-03  5.96D+00    3.68302D-02
         5    1.13720D-03  0.00D+00  1.14D-03  6.10D+00    4.91070D-02
         6    1.21658D-03  0.00D+00  1.22D-03  6.28D+00    6.13838D-02
         7    1.32350D-03  0.00D+00  1.32D-03  6.52D+00    7.36605D-02
         8    1.46583D-03  0.00D+00  1.47D-03  6.82D+00    8.59372D-02
         9    1.65535D-03  0.00D+00  1.66D-03  7.20D+00    9.82140D-02

 *** THE REQUESTED    9 SOLUTION VECTORS CONVERGED

 Convergence of RSP solution vectors, threshold = 1.00D-03
 ---------------------------------------------------------------
 (dimension of paired reduced space:   90)
 RSP solution vector no.    1; norm of residual   1.75D-04
 RSP solution vector no.    2; norm of residual   1.75D-04
 RSP solution vector no.    3; norm of residual   1.77D-04
 RSP solution vector no.    4; norm of residual   1.81D-04
 RSP solution vector no.    5; norm of residual   1.86D-04
 RSP solution vector no.    6; norm of residual   1.94D-04
 RSP solution vector no.    7; norm of residual   2.03D-04
 RSP solution vector no.    8; norm of residual   2.15D-04
 RSP solution vector no.    9; norm of residual   2.30D-04

 *** RSPCTL MICROITERATIONS CONVERGED


           Final output of second order properties from linear response
           ------------------------------------------------------------


@ Spin symmetry of operators: singlet

 Note that minus the linear response function: - << A; B >>(omega) is printed.
 The results are of quadratic accuracy using Sellers formula.

@ FREQUENCY INDEPENDENT SECOND ORDER PROPERTIES

@ -<< ZDIPLEN  ; ZDIPLEN  >> =  2.815426179330E+01

@ FREQUENCY DEPENDENT SECOND ORDER PROPERTIES WITH FREQUENCY :

@    a.u.:  1.2276750D-02
@    cm-1:  2.6944352D+03
@    eV  :  3.3406736D-01
@  kJ/mol:  3.2232602D+01
@    nm  :  3.7113530D+03

@ -<< ZDIPLEN  ; ZDIPLEN  >> =  2.819232056173E+01

@ FREQUENCY DEPENDENT SECOND ORDER PROPERTIES WITH FREQUENCY :

@    a.u.:  2.4553500D-02
@    cm-1:  5.3888703D+03
@    eV  :  6.6813472D-01
@  kJ/mol:  6.4465204D+01
@    nm  :  1.8556765D+03

@ -<< ZDIPLEN  ; ZDIPLEN  >> =  2.830754320829E+01

@ FREQUENCY DEPENDENT SECOND ORDER PROPERTIES WITH FREQUENCY :

@    a.u.:  3.6830250D-02
@    cm-1:  8.0833055D+03
@    eV  :  1.0022021D+00
@  kJ/mol:  9.6697806D+01
@    nm  :  1.2371177D+03

@ -<< ZDIPLEN  ; ZDIPLEN  >> =  2.850315822464E+01

@ FREQUENCY DEPENDENT SECOND ORDER PROPERTIES WITH FREQUENCY :

@    a.u.:  4.9107000D-02
@    cm-1:  1.0777741D+04
@    eV  :  1.3362694D+00
@  kJ/mol:  1.2893041D+02
@    nm  :  9.2783825D+02

@ -<< ZDIPLEN  ; ZDIPLEN  >> =  2.878486051524E+01

@ FREQUENCY DEPENDENT SECOND ORDER PROPERTIES WITH FREQUENCY :

@    a.u.:  6.1383750D-02
@    cm-1:  1.3472176D+04
@    eV  :  1.6703368D+00
@  kJ/mol:  1.6116301D+02
@    nm  :  7.4227060D+02

@ -<< ZDIPLEN  ; ZDIPLEN  >> =  2.916134287131E+01

@ FREQUENCY DEPENDENT SECOND ORDER PROPERTIES WITH FREQUENCY :

@    a.u.:  7.3660500D-02
@    cm-1:  1.6166611D+04
@    eV  :  2.0044042D+00
@  kJ/mol:  1.9339561D+02
@    nm  :  6.1855883D+02

@ -<< ZDIPLEN  ; ZDIPLEN  >> =  2.964518044796E+01

@ FREQUENCY DEPENDENT SECOND ORDER PROPERTIES WITH FREQUENCY :

@    a.u.:  8.5937250D-02
@    cm-1:  1.8861046D+04
@    eV  :  2.3384715D+00
@  kJ/mol:  2.2562822D+02
@    nm  :  5.3019329D+02

@ -<< ZDIPLEN  ; ZDIPLEN  >> =  3.025426469875E+01

@ FREQUENCY DEPENDENT SECOND ORDER PROPERTIES WITH FREQUENCY :

@    a.u.:  9.8214000D-02
@    cm-1:  2.1555481D+04
@    eV  :  2.6725389D+00
@  kJ/mol:  2.5786082D+02
@    nm  :  4.6391913D+02

@ -<< ZDIPLEN  ; ZDIPLEN  >> =  3.101415268496E+01


 Time used in linear response calculation is      4.50 CPU seconds for symmetry 1
 ----------------------------------------------------------------
 ----- Linear response calculation
 ----- Symmetry of excitation/property operator(s)    2  ( B1 )
 ----------------------------------------------------------------

 Number of excitations of this symmetry            0
 Number of response properties of this symmetry    1
 Number of C6/C8 properties of this symmetry       0


 Perturbation symmetry.     KSYMOP:           2
 Perturbation spin symmetry.TRPLET:           F
 Orbital variables.         KZWOPT:         536
 Configuration variables.   KZCONF:           0
 Total number of variables. KZVAR :         536


 RSPLR -- linear response calculation for symmetry 2  ( B1 )
 RSPLR -- operator label : XDIPLEN 
 RSPLR -- operator spin  :   0
 RSPLR -- frequencies    :     0.000000  0.012277  0.024553  0.036830  0.049107
                               0.061384  0.073660  0.085937  0.098214



 ---  SOLVING SETS OF LINEAR EQUATIONS FOR LINEAR RESPONSE PROPERTIES ---

 Operator symmetry = 2  ( B1 ); triplet =   F


 ** RSPCTL MICROITERATION NUMBER    1

       No.  Residual tot.,    conf., and orb.    Bnorm      Frequency 
      ----------------------------------------------------------------
         1    1.69627D+00  0.00D+00  1.70D+00  5.15D+00    0.00000D+00
         2    1.69722D+00  0.00D+00  1.70D+00  5.17D+00    1.22767D-02
         3    1.70009D+00  0.00D+00  1.70D+00  5.21D+00    2.45535D-02
         4    1.70494D+00  0.00D+00  1.70D+00  5.27D+00    3.68302D-02
         5    1.71188D+00  0.00D+00  1.71D+00  5.37D+00    4.91070D-02
         6    1.72108D+00  0.00D+00  1.72D+00  5.50D+00    6.13838D-02
         7    1.73276D+00  0.00D+00  1.73D+00  5.66D+00    7.36605D-02
         8    1.74729D+00  0.00D+00  1.75D+00  5.87D+00    8.59372D-02
         9    1.76516D+00  0.00D+00  1.77D+00  6.13D+00    9.82140D-02

 ** RSPCTL MICROITERATION NUMBER    2

       No.  Residual tot.,    conf., and orb.    Bnorm      Frequency 
      ----------------------------------------------------------------
         1    2.05788D-01  0.00D+00  2.06D-01  5.41D+00    0.00000D+00
         2    2.06159D-01  0.00D+00  2.06D-01  5.42D+00    1.22767D-02
         3    2.07288D-01  0.00D+00  2.07D-01  5.47D+00    2.45535D-02
         4    2.09226D-01  0.00D+00  2.09D-01  5.54D+00    3.68302D-02
         5    2.12065D-01  0.00D+00  2.12D-01  5.66D+00    4.91070D-02
         6    2.15952D-01  0.00D+00  2.16D-01  5.81D+00    6.13838D-02
         7    2.21109D-01  0.00D+00  2.21D-01  6.00D+00    7.36605D-02
         8    2.27870D-01  0.00D+00  2.28D-01  6.25D+00    8.59372D-02
         9    2.36755D-01  0.00D+00  2.37D-01  6.58D+00    9.82140D-02

 ** RSPCTL MICROITERATION NUMBER    3

       No.  Residual tot.,    conf., and orb.    Bnorm      Frequency 
      ----------------------------------------------------------------
         1    1.30753D-02  0.00D+00  1.31D-02  5.41D+00    0.00000D+00
         2    1.31933D-02  0.00D+00  1.32D-02  5.43D+00    1.22767D-02
         3    1.35520D-02  0.00D+00  1.36D-02  5.47D+00    2.45535D-02
         4    1.41649D-02  0.00D+00  1.42D-02  5.55D+00    3.68302D-02
         5    1.50573D-02  0.00D+00  1.51D-02  5.66D+00    4.91070D-02
         6    1.62693D-02  0.00D+00  1.63D-02  5.81D+00    6.13838D-02
         7    1.78622D-02  0.00D+00  1.79D-02  6.01D+00    7.36605D-02
         8    1.99288D-02  0.00D+00  1.99D-02  6.27D+00    8.59372D-02
         9    2.26111D-02  0.00D+00  2.26D-02  6.59D+00    9.82140D-02

 ** RSPCTL MICROITERATION NUMBER    4

       No.  Residual tot.,    conf., and orb.    Bnorm      Frequency 
      ----------------------------------------------------------------
         1    1.69889D-03  0.00D+00  1.70D-03  5.41D+00    0.00000D+00
         2    1.72654D-03  0.00D+00  1.73D-03  5.43D+00    1.22767D-02
         3    1.81068D-03  0.00D+00  1.81D-03  5.47D+00    2.45535D-02
         4    1.95515D-03  0.00D+00  1.96D-03  5.55D+00    3.68302D-02
         5    2.16738D-03  0.00D+00  2.17D-03  5.66D+00    4.91070D-02
         6    2.45996D-03  0.00D+00  2.46D-03  5.81D+00    6.13838D-02
         7    2.85308D-03  0.00D+00  2.85D-03  6.01D+00    7.36605D-02
         8    3.37858D-03  0.00D+00  3.38D-03  6.27D+00    8.59372D-02
         9    4.08695D-03  0.00D+00  4.09D-03  6.59D+00    9.82140D-02

 *** THE REQUESTED    9 SOLUTION VECTORS CONVERGED

 Convergence of RSP solution vectors, threshold = 1.00D-03
 ---------------------------------------------------------------
 (dimension of paired reduced space:   72)
 RSP solution vector no.    1; norm of residual   3.14D-04
 RSP solution vector no.    2; norm of residual   3.18D-04
 RSP solution vector no.    3; norm of residual   3.31D-04
 RSP solution vector no.    4; norm of residual   3.52D-04
 RSP solution vector no.    5; norm of residual   3.83D-04
 RSP solution vector no.    6; norm of residual   4.23D-04
 RSP solution vector no.    7; norm of residual   4.75D-04
 RSP solution vector no.    8; norm of residual   5.39D-04
 RSP solution vector no.    9; norm of residual   6.20D-04

 *** RSPCTL MICROITERATIONS CONVERGED


           Final output of second order properties from linear response
           ------------------------------------------------------------


@ Spin symmetry of operators: singlet

 Note that minus the linear response function: - << A; B >>(omega) is printed.
 The results are of quadratic accuracy using Sellers formula.

@ FREQUENCY INDEPENDENT SECOND ORDER PROPERTIES

@ -<< XDIPLEN  ; XDIPLEN  >> =  2.581330643919E+01

@ FREQUENCY DEPENDENT SECOND ORDER PROPERTIES WITH FREQUENCY :

@    a.u.:  1.2276750D-02
@    cm-1:  2.6944352D+03
@    eV  :  3.3406736D-01
@  kJ/mol:  3.2232602D+01
@    nm  :  3.7113530D+03

@ -<< XDIPLEN  ; XDIPLEN  >> =  2.584421752720E+01

@ FREQUENCY DEPENDENT SECOND ORDER PROPERTIES WITH FREQUENCY :

@    a.u.:  2.4553500D-02
@    cm-1:  5.3888703D+03
@    eV  :  6.6813472D-01
@  kJ/mol:  6.4465204D+01
@    nm  :  1.8556765D+03

@ -<< XDIPLEN  ; XDIPLEN  >> =  2.593773649209E+01

@ FREQUENCY DEPENDENT SECOND ORDER PROPERTIES WITH FREQUENCY :

@    a.u.:  3.6830250D-02
@    cm-1:  8.0833055D+03
@    eV  :  1.0022021D+00
@  kJ/mol:  9.6697806D+01
@    nm  :  1.2371177D+03

@ -<< XDIPLEN  ; XDIPLEN  >> =  2.609628921862E+01

@ FREQUENCY DEPENDENT SECOND ORDER PROPERTIES WITH FREQUENCY :

@    a.u.:  4.9107000D-02
@    cm-1:  1.0777741D+04
@    eV  :  1.3362694D+00
@  kJ/mol:  1.2893041D+02
@    nm  :  9.2783825D+02

@ -<< XDIPLEN  ; XDIPLEN  >> =  2.632416165102E+01

@ FREQUENCY DEPENDENT SECOND ORDER PROPERTIES WITH FREQUENCY :

@    a.u.:  6.1383750D-02
@    cm-1:  1.3472176D+04
@    eV  :  1.6703368D+00
@  kJ/mol:  1.6116301D+02
@    nm  :  7.4227060D+02

@ -<< XDIPLEN  ; XDIPLEN  >> =  2.662791616643E+01

@ FREQUENCY DEPENDENT SECOND ORDER PROPERTIES WITH FREQUENCY :

@    a.u.:  7.3660500D-02
@    cm-1:  1.6166611D+04
@    eV  :  2.0044042D+00
@  kJ/mol:  1.9339561D+02
@    nm  :  6.1855883D+02

@ -<< XDIPLEN  ; XDIPLEN  >> =  2.701709893972E+01

@ FREQUENCY DEPENDENT SECOND ORDER PROPERTIES WITH FREQUENCY :

@    a.u.:  8.5937250D-02
@    cm-1:  1.8861046D+04
@    eV  :  2.3384715D+00
@  kJ/mol:  2.2562822D+02
@    nm  :  5.3019329D+02

@ -<< XDIPLEN  ; XDIPLEN  >> =  2.750542211587E+01

@ FREQUENCY DEPENDENT SECOND ORDER PROPERTIES WITH FREQUENCY :

@    a.u.:  9.8214000D-02
@    cm-1:  2.1555481D+04
@    eV  :  2.6725389D+00
@  kJ/mol:  2.5786082D+02
@    nm  :  4.6391913D+02

@ -<< XDIPLEN  ; XDIPLEN  >> =  2.811278566714E+01


 Time used in linear response calculation is      3.65 CPU seconds for symmetry 2
 ----------------------------------------------------------------
 ----- Linear response calculation
 ----- Symmetry of excitation/property operator(s)    3  ( B2 )
 ----------------------------------------------------------------

 Number of excitations of this symmetry            0
 Number of response properties of this symmetry    1
 Number of C6/C8 properties of this symmetry       0


 Perturbation symmetry.     KSYMOP:           3
 Perturbation spin symmetry.TRPLET:           F
 Orbital variables.         KZWOPT:         536
 Configuration variables.   KZCONF:           0
 Total number of variables. KZVAR :         536


 RSPLR -- linear response calculation for symmetry 3  ( B2 )
 RSPLR -- operator label : YDIPLEN 
 RSPLR -- operator spin  :   0
 RSPLR -- frequencies    :     0.000000  0.012277  0.024553  0.036830  0.049107
                               0.061384  0.073660  0.085937  0.098214



 ---  SOLVING SETS OF LINEAR EQUATIONS FOR LINEAR RESPONSE PROPERTIES ---

 Operator symmetry = 3  ( B2 ); triplet =   F


 ** RSPCTL MICROITERATION NUMBER    1

       No.  Residual tot.,    conf., and orb.    Bnorm      Frequency 
      ----------------------------------------------------------------
         1    1.71961D+00  0.00D+00  1.72D+00  5.16D+00    0.00000D+00
         2    1.72059D+00  0.00D+00  1.72D+00  5.17D+00    1.22767D-02
         3    1.72356D+00  0.00D+00  1.72D+00  5.21D+00    2.45535D-02
         4    1.72857D+00  0.00D+00  1.73D+00  5.28D+00    3.68302D-02
         5    1.73574D+00  0.00D+00  1.74D+00  5.37D+00    4.91070D-02
         6    1.74523D+00  0.00D+00  1.75D+00  5.50D+00    6.13838D-02
         7    1.75731D+00  0.00D+00  1.76D+00  5.67D+00    7.36605D-02
         8    1.77232D+00  0.00D+00  1.77D+00  5.87D+00    8.59372D-02
         9    1.79080D+00  0.00D+00  1.79D+00  6.14D+00    9.82140D-02

 ** RSPCTL MICROITERATION NUMBER    2

       No.  Residual tot.,    conf., and orb.    Bnorm      Frequency 
      ----------------------------------------------------------------
         1    1.99522D-01  0.00D+00  2.00D-01  5.41D+00    0.00000D+00
         2    1.99868D-01  0.00D+00  2.00D-01  5.42D+00    1.22767D-02
         3    2.00922D-01  0.00D+00  2.01D-01  5.47D+00    2.45535D-02
         4    2.02733D-01  0.00D+00  2.03D-01  5.55D+00    3.68302D-02
         5    2.05391D-01  0.00D+00  2.05D-01  5.66D+00    4.91070D-02
         6    2.09038D-01  0.00D+00  2.09D-01  5.81D+00    6.13838D-02
         7    2.13893D-01  0.00D+00  2.14D-01  6.00D+00    7.36605D-02
         8    2.20285D-01  0.00D+00  2.20D-01  6.26D+00    8.59372D-02
         9    2.28728D-01  0.00D+00  2.29D-01  6.58D+00    9.82140D-02

 ** RSPCTL MICROITERATION NUMBER    3

       No.  Residual tot.,    conf., and orb.    Bnorm      Frequency 
      ----------------------------------------------------------------
         1    1.48776D-02  0.00D+00  1.49D-02  5.41D+00    0.00000D+00
         2    1.50084D-02  0.00D+00  1.50D-02  5.43D+00    1.22767D-02
         3    1.54064D-02  0.00D+00  1.54D-02  5.47D+00    2.45535D-02
         4    1.60888D-02  0.00D+00  1.61D-02  5.55D+00    3.68302D-02
         5    1.70872D-02  0.00D+00  1.71D-02  5.66D+00    4.91070D-02
         6    1.84506D-02  0.00D+00  1.85D-02  5.81D+00    6.13838D-02
         7    2.02533D-02  0.00D+00  2.03D-02  6.01D+00    7.36605D-02
         8    2.26056D-02  0.00D+00  2.26D-02  6.27D+00    8.59372D-02
         9    2.56742D-02  0.00D+00  2.57D-02  6.59D+00    9.82140D-02

 ** RSPCTL MICROITERATION NUMBER    4

       No.  Residual tot.,    conf., and orb.    Bnorm      Frequency 
      ----------------------------------------------------------------
         1    2.81802D-03  0.00D+00  2.82D-03  5.41D+00    0.00000D+00
         2    2.84311D-03  0.00D+00  2.84D-03  5.43D+00    1.22767D-02
         3    2.91985D-03  0.00D+00  2.92D-03  5.47D+00    2.45535D-02
         4    3.05283D-03  0.00D+00  3.05D-03  5.55D+00    3.68302D-02
         5    3.25032D-03  0.00D+00  3.25D-03  5.66D+00    4.91070D-02
         6    3.52544D-03  0.00D+00  3.53D-03  5.81D+00    6.13838D-02
         7    3.89813D-03  0.00D+00  3.90D-03  6.01D+00    7.36605D-02
         8    4.39852D-03  0.00D+00  4.40D-03  6.27D+00    8.59372D-02
         9    5.07300D-03  0.00D+00  5.07D-03  6.59D+00    9.82140D-02

 *** THE REQUESTED    9 SOLUTION VECTORS CONVERGED

 Convergence of RSP solution vectors, threshold = 1.00D-03
 ---------------------------------------------------------------
 (dimension of paired reduced space:   72)
 RSP solution vector no.    1; norm of residual   5.21D-04
 RSP solution vector no.    2; norm of residual   5.24D-04
 RSP solution vector no.    3; norm of residual   5.33D-04
 RSP solution vector no.    4; norm of residual   5.50D-04
 RSP solution vector no.    5; norm of residual   5.74D-04
 RSP solution vector no.    6; norm of residual   6.06D-04
 RSP solution vector no.    7; norm of residual   6.48D-04
 RSP solution vector no.    8; norm of residual   7.02D-04
 RSP solution vector no.    9; norm of residual   7.70D-04

 *** RSPCTL MICROITERATIONS CONVERGED


           Final output of second order properties from linear response
           ------------------------------------------------------------


@ Spin symmetry of operators: singlet

 Note that minus the linear response function: - << A; B >>(omega) is printed.
 The results are of quadratic accuracy using Sellers formula.

@ FREQUENCY INDEPENDENT SECOND ORDER PROPERTIES

@ -<< YDIPLEN  ; YDIPLEN  >> =  2.581330572899E+01

@ FREQUENCY DEPENDENT SECOND ORDER PROPERTIES WITH FREQUENCY :

@    a.u.:  1.2276750D-02
@    cm-1:  2.6944352D+03
@    eV  :  3.3406736D-01
@  kJ/mol:  3.2232602D+01
@    nm  :  3.7113530D+03

@ -<< YDIPLEN  ; YDIPLEN  >> =  2.584421681175E+01

@ FREQUENCY DEPENDENT SECOND ORDER PROPERTIES WITH FREQUENCY :

@    a.u.:  2.4553500D-02
@    cm-1:  5.3888703D+03
@    eV  :  6.6813472D-01
@  kJ/mol:  6.4465204D+01
@    nm  :  1.8556765D+03

@ -<< YDIPLEN  ; YDIPLEN  >> =  2.593773576083E+01

@ FREQUENCY DEPENDENT SECOND ORDER PROPERTIES WITH FREQUENCY :

@    a.u.:  3.6830250D-02
@    cm-1:  8.0833055D+03
@    eV  :  1.0022021D+00
@  kJ/mol:  9.6697806D+01
@    nm  :  1.2371177D+03

@ -<< YDIPLEN  ; YDIPLEN  >> =  2.609628846095E+01

@ FREQUENCY DEPENDENT SECOND ORDER PROPERTIES WITH FREQUENCY :

@    a.u.:  4.9107000D-02
@    cm-1:  1.0777741D+04
@    eV  :  1.3362694D+00
@  kJ/mol:  1.2893041D+02
@    nm  :  9.2783825D+02

@ -<< YDIPLEN  ; YDIPLEN  >> =  2.632416085658E+01

@ FREQUENCY DEPENDENT SECOND ORDER PROPERTIES WITH FREQUENCY :

@    a.u.:  6.1383750D-02
@    cm-1:  1.3472176D+04
@    eV  :  1.6703368D+00
@  kJ/mol:  1.6116301D+02
@    nm  :  7.4227060D+02

@ -<< YDIPLEN  ; YDIPLEN  >> =  2.662791532625E+01

@ FREQUENCY DEPENDENT SECOND ORDER PROPERTIES WITH FREQUENCY :

@    a.u.:  7.3660500D-02
@    cm-1:  1.6166611D+04
@    eV  :  2.0044042D+00
@  kJ/mol:  1.9339561D+02
@    nm  :  6.1855883D+02

@ -<< YDIPLEN  ; YDIPLEN  >> =  2.701709804920E+01

@ FREQUENCY DEPENDENT SECOND ORDER PROPERTIES WITH FREQUENCY :

@    a.u.:  8.5937250D-02
@    cm-1:  1.8861046D+04
@    eV  :  2.3384715D+00
@  kJ/mol:  2.2562822D+02
@    nm  :  5.3019329D+02

@ -<< YDIPLEN  ; YDIPLEN  >> =  2.750542118217E+01

@ FREQUENCY DEPENDENT SECOND ORDER PROPERTIES WITH FREQUENCY :

@    a.u.:  9.8214000D-02
@    cm-1:  2.1555481D+04
@    eV  :  2.6725389D+00
@  kJ/mol:  2.5786082D+02
@    nm  :  4.6391913D+02

@ -<< YDIPLEN  ; YDIPLEN  >> =  2.811278472728E+01


 Time used in linear response calculation is      3.64 CPU seconds for symmetry 3

  Total CPU  time used in RESPONSE:  11.80 seconds
  Total wall time used in RESPONSE:  11.84 seconds


                   .-------------------------------------------.
                   | End of Dynamic Property Section (RESPONS) |
                   `-------------------------------------------'

  Total CPU  time used in DALTON:  17.21 seconds
  Total wall time used in DALTON:  17.27 seconds

 
     Date and time (Linux)  : Wed Jan 11 14:14:49 2023
     Host name              : cn042                                   
