

     ************************************************************************
     *************** Dalton - An Electronic Structure Program ***************
     ************************************************************************

    This is output from DALTON release Dalton2020.0 (2020)
         ( Web site: http://daltonprogram.org )

   ----------------------------------------------------------------------------

    NOTE:
     
    Dalton is an experimental code for the evaluation of molecular
    properties using (MC)SCF, DFT, CI, and CC wave functions.
    The authors accept no responsibility for the performance of
    the code or for the correctness of the results.
     
    The code (in whole or part) is provided under a licence and
    is not to be reproduced for further distribution without
    the written permission of the authors or their representatives.
     
    See the home page "http://daltonprogram.org" for further information.
     
    If results obtained with this code are published,
    the appropriate citations would be both of:
     
       K. Aidas, C. Angeli, K. L. Bak, V. Bakken, R. Bast,
       L. Boman, O. Christiansen, R. Cimiraglia, S. Coriani,
       P. Dahle, E. K. Dalskov, U. Ekstroem,
       T. Enevoldsen, J. J. Eriksen, P. Ettenhuber, B. Fernandez,
       L. Ferrighi, H. Fliegl, L. Frediani, K. Hald, A. Halkier,
       C. Haettig, H. Heiberg, T. Helgaker, A. C. Hennum,
       H. Hettema, E. Hjertenaes, S. Hoest, I.-M. Hoeyvik,
       M. F. Iozzi, B. Jansik, H. J. Aa. Jensen, D. Jonsson,
       P. Joergensen, J. Kauczor, S. Kirpekar,
       T. Kjaergaard, W. Klopper, S. Knecht, R. Kobayashi, H. Koch,
       J. Kongsted, A. Krapp, K. Kristensen, A. Ligabue,
       O. B. Lutnaes, J. I. Melo, K. V. Mikkelsen, R. H. Myhre,
       C. Neiss, C. B. Nielsen, P. Norman, J. Olsen,
       J. M. H. Olsen, A. Osted, M. J. Packer, F. Pawlowski,
       T. B. Pedersen, P. F. Provasi, S. Reine, Z. Rinkevicius,
       T. A. Ruden, K. Ruud, V. Rybkin, P. Salek, C. C. M. Samson,
       A. Sanchez de Meras, T. Saue, S. P. A. Sauer,
       B. Schimmelpfennig, K. Sneskov, A. H. Steindal,
       K. O. Sylvester-Hvid, P. R. Taylor, A. M. Teale,
       E. I. Tellgren, D. P. Tew, A. J. Thorvaldsen, L. Thoegersen,
       O. Vahtras, M. A. Watson, D. J. D. Wilson, M. Ziolkowski
       and H. Agren,
       "The Dalton quantum chemistry program system",
       WIREs Comput. Mol. Sci. 2014, 4:269–284 (doi: 10.1002/wcms.1172)
     
    and
     
       Dalton, a molecular electronic structure program,
       Release Dalton2020.0 (2020), see http://daltonprogram.org
   ----------------------------------------------------------------------------

    Authors in alphabetical order (Major contribution(s) in parenthesis):

  Kestutis Aidas,           Vilnius University,           Lithuania   (QM/MM)
  Celestino Angeli,         University of Ferrara,        Italy       (NEVPT2)
  Keld L. Bak,              UNI-C,                        Denmark     (AOSOPPA, non-adiabatic coupling, magnetic properties)
  Vebjoern Bakken,          University of Oslo,           Norway      (DALTON; geometry optimizer, symmetry detection)
  Radovan Bast,             UiT The Arctic U. of Norway,  Norway      (DALTON installation and execution frameworks)
  Pablo Baudin,             University of Valencia,       Spain       (Cholesky excitation energies)
  Linus Boman,              NTNU,                         Norway      (Cholesky decomposition and subsystems)
  Bruno N. Cabral Tenorio,  Technical Univ. of Denmark,   Denmark     (Lanczos-based CC methods)
  Ove Christiansen,         Aarhus University,            Denmark     (CC module)
  Renzo Cimiraglia,         University of Ferrara,        Italy       (NEVPT2)
  Sonia Coriani,            Technical Univ. of Denmark,   Denmark     (CC and RESPONS modules)
  Janusz Cukras,            University of Warsaw,         Poland      (MChD in RESPONS)
  Paal Dahle,               University of Oslo,           Norway      (Parallelization)
  Erik K. Dalskov,          UNI-C,                        Denmark     (SOPPA)
  Thomas Enevoldsen,        Univ. of Southern Denmark,    Denmark     (SOPPA)
  Janus J. Eriksen,         Aarhus University,            Denmark     (Polarizable embedding, TDA)
  Rasmus Faber,             Technical Univ. of Denmark,   Denmark     (Vib.avg. NMR w. SOPPA, parallel AO-SOPPA, CVS-CC and EOMCC)
  Tobias Fahleson,          KTH Stockholm,                Sweden      (Damped cubic response)
  Berta Fernandez,          U. of Santiago de Compostela, Spain       (Doublet spin, ESR in RESPONS)
  Lara Ferrighi,            Aarhus University,            Denmark     (PCM Cubic response)
  Heike Fliegl,             University of Oslo,           Norway      (CCSD(R12))
  Luca Frediani,            UiT The Arctic U. of Norway,  Norway      (PCM)
  Emmanuel Fromager,        Univ. Strasbourg,             France      (MC-srDFT)
  Bin Gao,                  UiT The Arctic U. of Norway,  Norway      (Gen1Int library)
  Andre S. P. Gomes,        CNRS/Universite de Lille,     France      (Frozen density embedding)
  Christof Haettig,         Ruhr-University Bochum,       Germany     (CC module)
  Kasper Hald,              Aarhus University,            Denmark     (CC module)
  Asger Halkier,            Aarhus University,            Denmark     (CC module)
  Frederik Beyer Hansen,    University of Copenhagen,     Denmark     (Parallel AO-SOPPA)
  Erik D. Hedegaard,        Univ. of Southern Denmark,    Denmark     (Polarizable embedding, QM/MM, and MC-srDFT)
  Hanne Heiberg,            University of Oslo,           Norway      (Geometry analysis, selected one-electron integrals)
  Trygve Helgaker,          University of Oslo,           Norway      (DALTON; ABACUS, ERI, DFT modules, London, and much more)
  Alf Christian Hennum,     University of Oslo,           Norway      (Parity violation)
  Hinne Hettema,            University of Auckland,       New Zealand (Quadratic response in RESPONS; SIRIUS supersymmetry)
  Eirik Hjertenaes,         NTNU,                         Norway      (Cholesky decomposition)
  Pi A. B. Haase,           University of Copenhagen,     Denmark     (Triplet AO-SOPPA)
  Maria Francesca Iozzi,    University of Oslo,           Norway      (RPA)
  Christoph Jacob           TU Braunschweig               Germany     (Frozen density embedding)
  Brano Jansik              Technical Univ. of Ostrava    Czech Rep.  (DFT cubic response)
  Hans Joergen Aa. Jensen,  Univ. of Southern Denmark,    Denmark     (DALTON; SIRIUS, RESPONS, ABACUS, MC-srDFT, and much more)
  Dan Jonsson,              UiT The Arctic U. of Norway,  Norway      (Cubic response in RESPONS module)
  Poul Joergensen,          Aarhus University,            Denmark     (RESPONS, ABACUS, and CC modules)
  Maciej Kaminski,          University of Warsaw,         Poland      (CPPh in RESPONS)
  Joanna Kauczor,           Linkoeping University,        Sweden      (Complex polarization propagator (CPP) module)
  Sheela Kirpekar,          Univ. of Southern Denmark,    Denmark     (Mass-velocity & Darwin integrals)
  Erik Kjellgren,           Univ. of Southern Denmark,    Denmark     (MC-srDFT)
  Wim Klopper,              KIT Karlsruhe,                Germany     (R12 code in CC, SIRIUS, and ABACUS modules)
  Stefan Knecht,            ETH Zurich,                   Switzerland (Parallel CI and MCSCF, MC-srDFT)
  Rika Kobayashi,           Australian National Univ.,    Australia   (DIIS in CC, London in MCSCF)
  Henrik Koch,              NTNU,                         Norway      (CC module, Cholesky decomposition)
  Jacob Kongsted,           Univ. of Southern Denmark,    Denmark     (Polarizable embedding, polarizable density embedding, QM/MM)
  Andrea Ligabue,           University of Modena,         Italy       (CTOCD, AOSOPPA)
  Nanna H. List             Univ. of Southern Denmark,    Denmark     (Polarizable embedding)
  Ola B. Lutnaes,           University of Oslo,           Norway      (DFT Hessian)
  Juan I. Melo,             University of Buenos Aires,   Argentina   (LRESC, Relativistic Effects on NMR Shieldings)
  Kurt V. Mikkelsen,        University of Copenhagen,     Denmark     (MC-SCRF and QM/MM)
  Rolf H. Myhre,            NTNU,                         Norway      (Subsystems and CC3)
  Christian Neiss,          Univ. Erlangen-Nuernberg,     Germany     (CCSD(R12))
  Christian B. Nielsen,     University of Copenhagen,     Denmark     (QM/MM)
  Patrick Norman,           KTH Stockholm,                Sweden      (Cubic response and complex frequency response in RESPONS)
  Jeppe Olsen,              Aarhus University,            Denmark     (SIRIUS CI/density modules)
  Jogvan Magnus H. Olsen,   Aarhus University,            Denmark     (Polarizable embedding and polarizable density embedding)
  Anders Osted,             Copenhagen University,        Denmark     (QM/MM)
  Martin J. Packer,         University of Sheffield,      UK          (SOPPA)
  Filip Pawlowski,          Kazimierz Wielki University,  Poland      (CC3)
  Morten N. Pedersen,       Univ. of Southern Denmark,    Denmark     (Polarizable embedding)
  Thomas B. Pedersen,       University of Oslo,           Norway      (Cholesky decomposition)
  Patricio F. Provasi,      University of Northeastern,   Argentina   (Analysis of coupling constants in localized orbitals)
  Peter Reinholdt,          Univ. of Southern Denmark,    Denmark     (Polarizable embedding and polarizable density embedding)
  Zilvinas Rinkevicius,     KTH Stockholm,                Sweden      (open-shell DFT, ESR)
  Elias Rudberg,            KTH Stockholm,                Sweden      (DFT grid and basis info)
  Torgeir A. Ruden,         University of Oslo,           Norway      (Numerical derivatives in ABACUS)
  Kenneth Ruud,             UiT The Arctic U. of Norway,  Norway      (DALTON; ABACUS magnetic properties and much more)
  Pawel Salek,              KTH Stockholm,                Sweden      (DALTON; DFT code)
  Claire C. M. Samson       University of Karlsruhe       Germany     (Boys localization, r12 integrals in ERI)
  Alfredo Sanchez de Meras, University of Valencia,       Spain       (CC module, Cholesky decomposition)
  Trond Saue,               Paul Sabatier University,     France      (direct Fock matrix construction)
  Stephan P. A. Sauer,      University of Copenhagen,     Denmark     (SOPPA(CCSD), SOPPA prop., AOSOPPA, vibrational g-factors)
  Bernd Schimmelpfennig,    Forschungszentrum Karlsruhe,  Germany     (AMFI module)
  Anna K. Schnack-Petersen, University of Copenhagen,     Denmark     (RPA(D) and HRPA(D) properties in AOSOPPA)
  Kristian Sneskov,         Aarhus University,            Denmark     (Polarizable embedding, QM/MM)
  Arnfinn H. Steindal,      UiT The Arctic U. of Norway,  Norway      (parallel QM/MM, polarizable embedding)
  Casper Steinmann,         Aalborg University,           Denmark     (QFIT, polarizable embedding)
  K. O. Sylvester-Hvid,     University of Copenhagen,     Denmark     (MC-SCRF)
  Peter R. Taylor,          VLSCI/Univ. of Melbourne,     Australia   (Symmetry handling ABACUS, integral transformation)
  Andrew M. Teale,          University of Nottingham,     England     (DFT-AC, DFT-D)
  David P. Tew,             University of Bristol,        England     (CCSD(R12))
  Julien Toulouse,          Sorbonne Univ.,               France      (MC-srDFT)
  Olav Vahtras,             KTH Stockholm,                Sweden      (Triplet response, spin-orbit, ESR, TDDFT, open-shell DFT)
  Lucas Visscher,           Vrije Universiteit Amsterdam, Netherlands (Frozen density embedding)
  David J. Wilson,          La Trobe University,          Australia   (DFT Hessian and DFT magnetizabilities)
  Hans Agren,               KTH Stockholm,                Sweden      (SIRIUS module, RESPONS, MC-SCRF solvation)
 --------------------------------------------------------------------------------

     Date and time (Linux)  : Wed Jan 11 15:38:31 2023
     Host name              : cn020                                   

 * Work memory size             :    64000000 =  488.28 megabytes.

 * Directories for basis set searches:
   1) /gpfs/projects/rjh/adrian/fd_compare/dalton/hf/NaCl/dipole
   2) /gpfs/projects/rjh/adrian/dalton/build/basis


Compilation information
-----------------------

 Who compiled             | ahurtado
 Host                     | sn-mem
 System                   | Linux-3.10.0-1160.24.1.el7.x86_64
 CMake generator          | Unix Makefiles
 Processor                | x86_64
 64-bit integers          | OFF
 MPI                      | ON
 Fortran compiler         | /gpfs/software/intel/oneAPI/2021_4/mpi/2021.4.0/bi
                          | n/mpif90
 Fortran compiler version | GNU Fortran (GCC) 11.2.0
 C compiler               | /gpfs/software/intel/oneAPI/2021_4/mpi/2021.4.0/bi
                          | n/mpicc
 C compiler version       | gcc (GCC) 11.2.0
 C++ compiler             | /gpfs/software/intel/oneAPI/2021_4/mpi/2021.4.0/bi
                          | n/mpicxx
 C++ compiler version     | unknown
 BLAS                     | /gpfs/software/intel/oneAPI/2021_4/mkl/2021.4.0/li
                          | b/intel64/libmkl_gf_lp64.so;/gpfs/software/intel/o
                          | neAPI/2021_4/mkl/2021.4.0/lib/intel64/libmkl_seque
                          | ntial.so;/gpfs/software/intel/oneAPI/2021_4/mkl/20
                          | 21.4.0/lib/intel64/libmkl_core.so;/usr/lib64/libpt
                          | hread.so;/usr/lib64/libm.so
 LAPACK                   | /gpfs/software/intel/oneAPI/2021_4/mkl/2021.4.0/li
                          | b/intel64/libmkl_lapack95_lp64.a;/gpfs/software/in
                          | tel/oneAPI/2021_4/mkl/2021.4.0/lib/intel64/libmkl_
                          | gf_lp64.so
 Static linking           | OFF
 Last Git revision        | 66052b3af5ea7225e31178bf9a8b031913c72190
 Git branch               | (HEAD detached at Dalton2020.0)
 Configuration time       | 2023-01-11 13:33:37.731835

 * MPI parallel run using 20 processes.


   Content of the .dal input file
 ----------------------------------

**DALTON INPUT
.RUN RESPONSE
.DIRECT
**WAVE FUNCTIONS
.HF
**RESPONSE
*LINEAR
.DIPLEN
.FREQUENCIES
9
0.0 0.01227675 0.0245535 0.036830249999999995 0.049107 0.06138375 0.07366049999999999 0.085937249999
**END OF DALTON INPUT


   Content of the .mol file
 ----------------------------

BASIS
d-aug-cc-pCVDZ
blah
blah
Atomtype=2 Atomic
Charge=11 Atoms=1
Na_a 0.000000000000 0.000000000000 0.000000000000
Charge=17 Atoms=1
Cl_a 0.000000000000 0.000000000000 4.461300000000


       *******************************************************************
       *********** Output from DALTON general input processing ***********
       *******************************************************************

 --------------------------------------------------------------------------------
   Overall default print level:    0
   Print level for DALTON.STAT:    1

    Parallel calculation using MPI
    AO-direct calculation (in sections where implemented)
    HERMIT 1- and 2-electron integral sections will be executed
    "Old" integral transformation used (limited to max 255 basis functions)
    Wave function sections will be executed (SIRIUS module)
    Dynamic molecular response properties section will be executed (RESPONSE module)
 --------------------------------------------------------------------------------


   ****************************************************************************
   *************** Output of molecule and basis set information ***************
   ****************************************************************************


    The two title cards from your ".mol" input:
    ------------------------------------------------------------------------
 1: blah                                                                    
 2: blah                                                                    
    ------------------------------------------------------------------------

  Atomic type no.    1
  --------------------
  Nuclear charge:  11.00000
  Number of symmetry independent centers:    1
  Number of basis sets to read;    2
  Basis set file used for this atomic type with Z =  11 :
     "/gpfs/projects/rjh/adrian/dalton/build/basis/aug-cc-pCVDZ"

  Atomic type no.    2
  --------------------
  Nuclear charge:  17.00000
  Number of symmetry independent centers:    1
  Number of basis sets to read;    2
  Basis set file used for this atomic type with Z =  17 :
     "/gpfs/projects/rjh/adrian/dalton/build/basis/aug-cc-pCVDZ"


                      SYMADD: Requested addition of symmetry
                      --------------------------------------

 Symmetry test threshold:  5.00E-06

@   The molecule is centered at center of mass and rotated
@   so principal axes of inertia are along coordinate axes.

 Symmetry class found: C(oo,v)        

 Symmetry Independent Centres             
 ----------------------------
Cl_a  17 :      0.00000000     0.00000000     1.76961176  Isotope  1
Na_a  11 :      0.00000000     0.00000000    -2.69168824  Isotope  1

 The following symmetry elements were found:   X  Y     


                         SYMGRP: Point group information
                         -------------------------------

@    Full point group is: C(oo,v)        
@    Represented as:      C2v

@  * The irrep name for each symmetry:    1: A1     2: B1     3: B2     4: A2 

   * The point group was generated by:

      Reflection in the yz-plane
      Reflection in the xz-plane

   * Group multiplication table

        |  E   C2z  Oxz  Oyz
   -----+--------------------
     E  |  E   C2z  Oxz  Oyz
    C2z | C2z   E   Oyz  Oxz
    Oxz | Oxz  Oyz   E   C2z
    Oyz | Oyz  Oxz  C2z   E 

   * Character table

        |  E   C2z  Oxz  Oyz
   -----+--------------------
    A1  |   1    1    1    1
    B1  |   1   -1    1   -1
    B2  |   1   -1   -1    1
    A2  |   1    1   -1   -1

   * Direct product table

        | A1   B1   B2   A2 
   -----+--------------------
    A1  | A1   B1   B2   A2 
    B1  | B1   A1   A2   B2 
    B2  | B2   A2   A1   B1 
    A2  | A2   B2   B1   A1 


                                 Isotopic Masses
                                 ---------------

                           Na_a       22.989770
                           Cl_a       34.968853

                       Total mass:    57.958623 amu
                       Natural abundance:  75.770 %

 Center-of-mass coordinates (a.u.):    0.000000    0.000000    0.000000
 Center-of-mass coordinates (Angs):    0.000000    0.000000    0.000000


  Atoms and basis sets
  --------------------

  Number of atom types :    2
  Total number of atoms:    2

  Basis set used is "d-aug-cc-pCVDZ" from the basis set library.

  label    atoms   charge   prim   cont     basis
  ----------------------------------------------------------------------
  Na          1   11.0000    68    45      [15s11p4d|7s6p4d]                                  
  Cl          1   17.0000    68    45      [15s11p4d|7s6p4d]                                  
  ----------------------------------------------------------------------
  total:      2   28.0000   136    90
  ----------------------------------------------------------------------
  Spherical harmonic basis used.

  Threshold for neglecting AO integrals:  1.00D-12


  Cartesian Coordinates (a.u.)
  ----------------------------

  Total number of coordinates:    6
  Na_a    :     1  x   0.0000000000    2  y   0.0000000000    3  z  -2.6916882392
  Cl_a    :     4  x   0.0000000000    5  y   0.0000000000    6  z   1.7696117608


  Symmetry Coordinates
  --------------------

  Number of coordinates in each symmetry:     2    2    2    0

  Symmetry  A1  ( 1)

    1   Na_a  z    3
    2   Cl_a  z    6

  Symmetry  B1  ( 2)

    3   Na_a  x    1
    4   Cl_a  x    4

  Symmetry  B2  ( 3)

    5   Na_a  y    2
    6   Cl_a  y    5


   Interatomic separations (in Angstrom):
   --------------------------------------

            Na_a        Cl_a  
            ------      ------
 Na_a  :    0.000000
 Cl_a  :    2.360818    0.000000


  Max    interatomic separation is    2.3608 Angstrom (    4.4613 Bohr)
  between atoms    2 and    1, "Cl_a  " and "Na_a  ".

  Min YX interatomic separation is    2.3608 Angstrom (    4.4613 Bohr)


  Bond distances (Angstrom):
  --------------------------

                  atom 1     atom 2       distance
                  ------     ------       --------
  bond distance:  Cl_a       Na_a         2.360818




 Principal moments of inertia (u*A**2) and principal axes
 --------------------------------------------------------

   IA       0.000000          0.000000    0.000000    1.000000
   IB      77.307758          0.000000    1.000000    0.000000
   IC      77.307758          1.000000    0.000000    0.000000


 Rotational constants
 --------------------

@    The molecule is linear.

               B =         6537.24 MHz     (    0.218059 cm-1)


@  Nuclear repulsion energy :   41.916033443167 Hartree


  Symmetry Orbitals
  -----------------

  Number of orbitals in each symmetry:          42   20   20    8


  Symmetry  A1 ( 1)

    1     Na_a     1s         1
    2     Na_a     1s         2
    3     Na_a     1s         3
    4     Na_a     1s         4
    5     Na_a     1s         5
    6     Na_a     1s         6
    7     Na_a     1s         7
    8     Na_a     2pz       10
    9     Na_a     2pz       13
   10     Na_a     2pz       16
   11     Na_a     2pz       19
   12     Na_a     2pz       22
   13     Na_a     2pz       25
   14     Na_a     3d0       28
   15     Na_a     3d2+      30
   16     Na_a     3d0       33
   17     Na_a     3d2+      35
   18     Na_a     3d0       38
   19     Na_a     3d2+      40
   20     Na_a     3d0       43
   21     Na_a     3d2+      45
   22     Cl_a     1s        46
   23     Cl_a     1s        47
   24     Cl_a     1s        48
   25     Cl_a     1s        49
   26     Cl_a     1s        50
   27     Cl_a     1s        51
   28     Cl_a     1s        52
   29     Cl_a     2pz       55
   30     Cl_a     2pz       58
   31     Cl_a     2pz       61
   32     Cl_a     2pz       64
   33     Cl_a     2pz       67
   34     Cl_a     2pz       70
   35     Cl_a     3d0       73
   36     Cl_a     3d2+      75
   37     Cl_a     3d0       78
   38     Cl_a     3d2+      80
   39     Cl_a     3d0       83
   40     Cl_a     3d2+      85
   41     Cl_a     3d0       88
   42     Cl_a     3d2+      90


  Symmetry  B1 ( 2)

   43     Na_a     2px        8
   44     Na_a     2px       11
   45     Na_a     2px       14
   46     Na_a     2px       17
   47     Na_a     2px       20
   48     Na_a     2px       23
   49     Na_a     3d1+      29
   50     Na_a     3d1+      34
   51     Na_a     3d1+      39
   52     Na_a     3d1+      44
   53     Cl_a     2px       53
   54     Cl_a     2px       56
   55     Cl_a     2px       59
   56     Cl_a     2px       62
   57     Cl_a     2px       65
   58     Cl_a     2px       68
   59     Cl_a     3d1+      74
   60     Cl_a     3d1+      79
   61     Cl_a     3d1+      84
   62     Cl_a     3d1+      89


  Symmetry  B2 ( 3)

   63     Na_a     2py        9
   64     Na_a     2py       12
   65     Na_a     2py       15
   66     Na_a     2py       18
   67     Na_a     2py       21
   68     Na_a     2py       24
   69     Na_a     3d1-      27
   70     Na_a     3d1-      32
   71     Na_a     3d1-      37
   72     Na_a     3d1-      42
   73     Cl_a     2py       54
   74     Cl_a     2py       57
   75     Cl_a     2py       60
   76     Cl_a     2py       63
   77     Cl_a     2py       66
   78     Cl_a     2py       69
   79     Cl_a     3d1-      72
   80     Cl_a     3d1-      77
   81     Cl_a     3d1-      82
   82     Cl_a     3d1-      87


  Symmetry  A2 ( 4)

   83     Na_a     3d2-      26
   84     Na_a     3d2-      31
   85     Na_a     3d2-      36
   86     Na_a     3d2-      41
   87     Cl_a     3d2-      71
   88     Cl_a     3d2-      76
   89     Cl_a     3d2-      81
   90     Cl_a     3d2-      86

  Symmetries of electric field:  B1 (2)  B2 (3)  A1 (1)

  Symmetries of magnetic field:  B2 (3)  B1 (2)  A2 (4)


                     .---------------------------------------.
                     | Starting in Integral Section (HERMIT) |
                     `---------------------------------------'



 ***************************************************************************************
 ****************** Output from **INTEGRALS input processing (HERMIT) ******************
 ***************************************************************************************


 - Using defaults, no **INTEGRALS input found

 Default print level:        1

 Calculation of one-electron Hamiltonian integrals.

 Center of mass  (bohr):      0.000000000000      0.000000000000      0.000000000000
 Operator center (bohr):      0.000000000000      0.000000000000      0.000000000000
 Gauge origin    (bohr):      0.000000000000      0.000000000000      0.000000000000
 Dipole origin   (bohr):      0.000000000000      0.000000000000      0.000000000000


     ************************************************************************
     ************************** Output from HERINT **************************
     ************************************************************************



                      Nuclear contribution to dipole moments
                      --------------------------------------

                 au               Debye          C m (/(10**-30)

      z      0.47482930         1.20689563         4.02577048


  Total CPU  time used in HERMIT:   0.20 seconds
  Total wall time used in HERMIT:   0.20 seconds


                        .----------------------------------.
                        | End of Integral Section (HERMIT) |
                        `----------------------------------'



                   .--------------------------------------------.
                   | Starting in Wave Function Section (SIRIUS) |
                   `--------------------------------------------'


 *** Output from Huckel module :

     Using EWMO model:          T
     Using EHT  model:          F
     Number of Huckel orbitals each symmetry:   12    5    5    1

 EWMO - Energy Weighted Maximum Overlap - is a Huckel type method,
        which normally is better than Extended Huckel Theory.
 Reference: Linderberg and Ohrn, Propagators in Quantum Chemistry (Wiley, 1973)

 Huckel EWMO eigenvalues for symmetry :  1
         -104.883948     -40.478552     -10.608924      -8.072225      -2.801071
           -1.524984      -1.108334      -0.511066      -0.164216      -0.079718
           -0.055556      -0.055019

 Huckel EWMO eigenvalues for symmetry :  2
           -8.072210      -1.518367      -0.513805      -0.107573      -0.054300

 Huckel EWMO eigenvalues for symmetry :  3
           -8.072210      -1.518367      -0.513805      -0.107573      -0.054300

 Huckel EWMO eigenvalues for symmetry :  4
           -0.055556

 **********************************************************************
 *SIRIUS* a direct, restricted step, second order MCSCF program       *
 **********************************************************************

 
     Date and time (Linux)  : Wed Jan 11 15:38:31 2023
     Host name              : cn020                                   

 Title lines from ".mol" input file:
     blah                                                                    
     blah                                                                    

 Print level on unit LUPRI =   2 is   0
 Print level on unit LUW4  =   2 is   5

@    Restricted, closed shell Hartree-Fock calculation.

@    Time-dependent Hartree-Fock calculation (random phase approximation).
 Fock matrices are calculated directly and in parallel without use of integrals on disk.

 Initial molecular orbitals are obtained according to
 ".MOSTART EWMO  " input option

     Wave function specification
     ============================
@    Wave function type        --- HF ---
@    Number of closed shell electrons          28
@    Number of electrons in active shells       0
@    Total charge of the molecule               0

@    Spin multiplicity and 2 M_S                1         0
@    Total number of symmetries                 4 (point group: C2v)
@    Reference state symmetry                   1 (irrep name : A1 )

     Orbital specifications
     ======================
@    Abelian symmetry species          All |    1    2    3    4
@                                          |  A1   B1   B2   A2 
                                       --- |  ---  ---  ---  ---
@    Total number of orbitals           90 |   42   20   20    8
@    Number of basis functions          90 |   42   20   20    8

      ** Automatic occupation of RHF orbitals **

      -- Initial occupation of symmetries is determined from extended Huckel guess.           
      -- Initial occupation of symmetries is :
@    Occupied SCF orbitals              14 |    8    3    3    0

     Maximum number of Fock   iterations      0
     Maximum number of DIIS   iterations     60
     Maximum number of QC-SCF iterations     60
     Threshold for SCF convergence     1.00D-05


 ***********************************************
 ***** DIIS acceleration of SCF iterations *****
 ***********************************************

 C1-DIIS algorithm; max error vectors =    8

 Automatic occupation of symmetries with  28 electrons.

 Iter     Total energy    Error norm  Delta(E)    SCF occupation
 -----------------------------------------------------------------------------
   1  Screening settings (-IFTHRS, JTDIIS, DIFDEN, times)   -7    1    T  1.00D-01  1.00D-01
@  1  -621.400069232       7.18D-01  -6.21D+02     8   3   3   0
      Virial theorem: -V/T =      1.997523
@    MULPOP   Na_a    0.91; Cl_a   -0.91; 
   1  Level shift: doubly occupied orbital energies shifted by -2.00D-01
 -----------------------------------------------------------------------------
   2  Screening settings (-IFTHRS, JTDIIS, DIFDEN, times)   -7    2    T  7.48D-02  7.50D-02
@  2  -621.436835709       2.30D-01  -3.68D-02     8   3   3   0
      Virial theorem: -V/T =      2.000962
@    MULPOP   Na_a    0.89; Cl_a   -0.89; 
   2  Level shift: doubly occupied orbital energies shifted by -1.00D-01
 -----------------------------------------------------------------------------
   3  Screening settings (-IFTHRS, JTDIIS, DIFDEN, times)  -11    3    F  7.87D-02  7.90D-02
@  3  -621.438744916       3.95D-02  -1.91D-03     8   3   3   0
      Virial theorem: -V/T =      2.000116
@    MULPOP   Na_a    0.88; Cl_a   -0.88; 
   3  Level shift: doubly occupied orbital energies shifted by -2.50D-02
 -----------------------------------------------------------------------------
   4  Screening settings (-IFTHRS, JTDIIS, DIFDEN, times)  -11    4    T  7.67D-02  7.70D-02
@  4  -621.439012385       1.16D-02  -2.67D-04     8   3   3   0
      Virial theorem: -V/T =      2.000079
@    MULPOP   Na_a    0.88; Cl_a   -0.88; 
   4  Level shift: doubly occupied orbital energies shifted by -1.25D-02
 -----------------------------------------------------------------------------
   5  Screening settings (-IFTHRS, JTDIIS, DIFDEN, times)  -11    5    T  7.80D-02  7.80D-02
@  5  -621.439043275       2.52D-03  -3.09D-05     8   3   3   0
      Virial theorem: -V/T =      2.000090
@    MULPOP   Na_a    0.88; Cl_a   -0.88; 
 -----------------------------------------------------------------------------
   6  Screening settings (-IFTHRS, JTDIIS, DIFDEN, times)  -11    6    T  7.86D-02  7.80D-02
@  6  -621.439045358       6.48D-04  -2.08D-06     8   3   3   0
      Virial theorem: -V/T =      2.000094
@    MULPOP   Na_a    0.88; Cl_a   -0.88; 
 -----------------------------------------------------------------------------
   7  Screening settings (-IFTHRS, JTDIIS, DIFDEN, times)  -11    7    T  7.20D-02  7.20D-02
@  7  -621.439045492       1.51D-04  -1.34D-07     8   3   3   0
      Virial theorem: -V/T =      2.000093
@    MULPOP   Na_a    0.88; Cl_a   -0.88; 
 -----------------------------------------------------------------------------
   8  Screening settings (-IFTHRS, JTDIIS, DIFDEN, times)  -11    8    T  6.42D-02  6.40D-02
@  8  -621.439045496       3.18D-05  -3.89D-09     8   3   3   0
      Virial theorem: -V/T =      2.000094
@    MULPOP   Na_a    0.88; Cl_a   -0.88; 
 -----------------------------------------------------------------------------
   9  Screening settings (-IFTHRS, JTDIIS, DIFDEN, times)  -11    9    T  6.64D-02  6.70D-02
@  9  -621.439045496       7.77D-06  -2.18D-10     8   3   3   0

@ *** DIIS converged in   9 iterations !
@     Converged SCF energy, gradient:   -621.439045495794    7.77D-06
    - total time used in SIRFCK :              0.00 seconds


 *** SCF orbital energy analysis ***

 Only the 20 lowest virtual orbital energies printed in each symmetry.

 Number of electrons :   28
 Orbital occupations :    8    3    3    0

 Sym       Hartree-Fock orbital energies

1 A1   -104.70601439   -40.50797695   -10.43067567    -7.89707249    -2.82655275
         -1.54943823    -0.94304132    -0.37129315    -0.02056117     0.00105858
          0.00818353     0.01631557     0.02762908     0.05128284     0.05874295
          0.05910190     0.08872588     0.10360464     0.15301370     0.17594533
          0.18762367     0.23517869     0.26176376     0.31534535     0.33539078
          0.42174255     0.47265696     0.57304305

2 B1     -7.89626041    -1.54887818    -0.35298777     0.00374379     0.01190925
          0.04036023     0.05758163     0.09052105     0.14273338     0.22213123
          0.25336008     0.34063157     0.44846145     0.70641392     1.07638583
          1.60954085     2.84377947     6.31028226    12.59307140    16.18032134

3 B2     -7.89626041    -1.54887818    -0.35298777     0.00374379     0.01190925
          0.04036023     0.05758163     0.09052105     0.14273338     0.22213123
          0.25336008     0.34063157     0.44846145     0.70641392     1.07638583
          1.60954085     2.84377947     6.31028226    12.59307140    16.18032134

4 A2      0.05910190     0.17594533     0.26176376     0.42174255     0.67981090
          1.59308644     6.30653965    16.17690787

    E(LUMO) :    -0.02056117 au (symmetry 1)
  - E(HOMO) :    -0.35298777 au (symmetry 3)
  ------------------------------------------
    gap     :     0.33242660 au

 --- Writing SIRIFC interface file

 CPU and wall time for SCF :       0.710       0.716


                       .-----------------------------------.
                       | --- Final results from SIRIUS --- |
                       `-----------------------------------'


@    Spin multiplicity:           1
@    Spatial symmetry:            1 ( irrep  A1  in C2v )
@    Total charge of molecule:    0

@    Final HF energy:            -621.439045495794                 
@    Nuclear repulsion:            41.916033443167
@    Electronic energy:          -663.355078938961

@    Final gradient norm:           0.000007771265

 
     Date and time (Linux)  : Wed Jan 11 15:38:32 2023
     Host name              : cn020                                   

File label for MO orbitals:  11Jan23   FOCKDIIS

 (Only coefficients > 0.0100 are printed.)

 Molecular orbitals for symmetry species 1  (A1 )
 ------------------------------------------------

    Orbital         1        2        3        4        5        6        7
   1 Na_a:1s    -0.0000  -0.9999   0.0001  -0.0000   0.0001  -0.0024   0.0011
   2 Na_a:1s    -0.0002   0.0005   0.0033  -0.0017  -1.0041  -0.0209   0.0217
   3 Na_a:1s    -0.0008   0.0005   0.0127  -0.0064  -0.0170   0.0099  -0.0223
   4 Na_a:1s    -0.0010  -0.0016   0.0168  -0.0022   0.0296  -0.0365  -0.0025
   5 Na_a:1s    -0.0002  -0.0003   0.0027  -0.0013  -0.0041   0.0119   0.0008
   8 Na_a:2pz   -0.0001   0.0003   0.0020  -0.0010   0.0077  -1.0000   0.0551
  10 Na_a:2pz   -0.0005  -0.0005   0.0084  -0.0006   0.0088  -0.0117  -0.0016
  22 Cl_a:1s     0.9999   0.0000  -0.0003   0.0001   0.0001   0.0002   0.0032
  23 Cl_a:1s     0.0001   0.0000  -1.0037  -0.0011   0.0005   0.0009   0.0222
  24 Cl_a:1s     0.0006   0.0000  -0.0096   0.0007  -0.0008  -0.0209  -0.9275
  25 Cl_a:1s    -0.0011  -0.0002   0.0180  -0.0010  -0.0012  -0.0027  -0.0459
  27 Cl_a:1s     0.0014  -0.0002  -0.0246   0.0074   0.0097   0.0135  -0.0362
  28 Cl_a:1s     0.0010   0.0013  -0.0164   0.0023  -0.0192   0.0253   0.0135
  29 Cl_a:2pz   -0.0000   0.0000   0.0011  -0.9997   0.0001   0.0003  -0.0025
  30 Cl_a:2pz    0.0000   0.0000   0.0000   0.0021   0.0024   0.0168   0.0161
  31 Cl_a:2pz   -0.0000   0.0001   0.0005  -0.0022  -0.0025  -0.0054   0.0253
  33 Cl_a:2pz   -0.0007   0.0000   0.0119  -0.0034  -0.0066  -0.0041  -0.0128
  39 Cl_a:3d0   -0.0000   0.0001   0.0002   0.0003  -0.0004   0.0036  -0.0131

    Orbital         8        9       10       11       12       13       14
   2 Na_a:1s    -0.0636   0.0422   0.0102  -0.0127  -0.0435   0.1971   0.1511
   3 Na_a:1s     0.0579  -0.1179   0.1336  -0.0730  -0.3297   0.6299   0.5895
   4 Na_a:1s    -0.1295  -0.4168   0.5101  -1.0291   1.6975   2.6020  -4.1990
   5 Na_a:1s    -0.0212   0.0313   0.0055  -0.0098  -0.0262   0.1395   0.1009
   6 Na_a:1s    -0.0128  -0.3728   0.9439  -1.1674   1.6754   3.9382  -1.7739
   7 Na_a:1s     0.0023  -0.0323  -1.1867   1.1883  -0.8122  -1.2011   0.3897
   8 Na_a:2pz   -0.0874  -0.0170   0.0174  -0.0238  -0.0084   0.1022  -0.0158
   9 Na_a:2pz   -0.0055   0.1592  -0.0025  -0.0748   0.0780   0.5413  -0.0370
  10 Na_a:2pz   -0.0544   0.3238   0.1531  -0.3943   1.4308   2.1765  -1.4666
  12 Na_a:2pz    0.0022   0.1862  -0.0082  -0.4112  -1.8277   0.7634  -0.7301
  13 Na_a:2pz   -0.0004  -0.0070   0.6990   0.9680   0.7454  -0.3027   0.3229
  16 Na_a:3d0   -0.0002  -0.0055   0.0088  -0.0247  -0.0117   0.0600  -0.1266
  18 Na_a:3d0   -0.0046  -0.0060   0.0136   0.0172   0.0902   0.0106   0.2375
  20 Na_a:3d0   -0.0110  -0.0514   0.0608  -0.1546   0.1963   0.2757  -1.3449
  23 Cl_a:1s    -0.0147   0.0022  -0.0026   0.0008  -0.0053  -0.0086  -0.0012
  24 Cl_a:1s    -0.0960   0.0405  -0.0183   0.0006   0.0206  -0.0300  -0.0224
  25 Cl_a:1s     0.0149  -0.0018   0.0154  -0.0110   0.0473   0.0694  -0.0013
  27 Cl_a:1s     0.0759   0.0160  -0.1221   0.1389  -0.2188  -0.7241   0.1693
  28 Cl_a:1s     0.1062  -0.0266  -0.6608   1.4403  -2.3827  -5.6725   5.3207
  30 Cl_a:2pz   -0.8885  -0.0835   0.0271  -0.0076  -0.0480  -0.0265   0.0540
  31 Cl_a:2pz   -0.0751  -0.0116   0.0073  -0.0107  -0.0152   0.0272  -0.0298
  33 Cl_a:2pz   -0.0940  -0.0229   0.1237  -0.1676   0.0036   0.9016   0.0764
  34 Cl_a:2pz   -0.0126  -0.0378   0.0503  -0.3254   1.1854   0.5848  -1.3490
  39 Cl_a:3d0    0.0407   0.0043  -0.0041   0.0023   0.0035  -0.0169   0.0001
  41 Cl_a:3d0    0.0065   0.0028  -0.0153   0.0296   0.0331  -0.1388  -0.0229

    Orbital        15       16       17       18
   1 Na_a:1s     0.0038   0.0000   0.0103  -0.0109
   2 Na_a:1s     0.1201   0.0000   0.3591  -0.4922
   3 Na_a:1s     0.2472   0.0000   1.5574  -1.6190
   4 Na_a:1s    -4.9180   0.0000  11.7242   0.5306
   5 Na_a:1s     0.0770  -0.0000   0.2400  -0.3701
   6 Na_a:1s     0.2025   0.0000   4.0234   0.9806
   7 Na_a:1s     0.1717  -0.0000  -0.8144  -0.1022
   8 Na_a:2pz    0.0031   0.0000   0.2678  -0.2386
   9 Na_a:2pz    0.0722   0.0000   0.9310  -1.1039
  10 Na_a:2pz   -1.4279   0.0000   6.3560   3.1918
  12 Na_a:2pz    1.7562  -0.0000   0.0677   0.0837
  13 Na_a:2pz   -0.3124   0.0000  -0.0297   0.0935
  16 Na_a:3d0    0.1591   0.0000   0.1282  -0.0195
  17 Na_a:3d2+  -0.0000   0.1708  -0.0000  -0.0000
  18 Na_a:3d0   -0.5297   0.0000   0.4503  -0.3591
  19 Na_a:3d2+  -0.0000  -0.5160   0.0000   0.0000
  20 Na_a:3d0    1.0395   0.0000   0.8750   2.1044
  21 Na_a:3d2+   0.0000   1.3499  -0.0000  -0.0000
  23 Cl_a:1s     0.0179   0.0000  -0.0318  -0.0373
  24 Cl_a:1s     0.1013  -0.0000  -0.0365  -0.1804
  25 Cl_a:1s    -0.0808   0.0000   0.2968   0.1515
  27 Cl_a:1s     0.4845  -0.0000  -2.4540  -0.2826
  28 Cl_a:1s     2.7303  -0.0000 -15.3908  -1.1302
  30 Cl_a:2pz   -0.0445  -0.0000   0.0834   0.0550
  31 Cl_a:2pz    0.0326   0.0000   0.0618  -0.0224
  33 Cl_a:2pz   -0.2243   0.0000   2.5644  -1.6137
  34 Cl_a:2pz   -3.1309   0.0000   2.0305  -1.4919
  37 Cl_a:3d0    0.0011   0.0000   0.0109   0.0047
  39 Cl_a:3d0   -0.0191  -0.0000  -0.0448  -0.0379
  40 Cl_a:3d2+  -0.0000   0.0270  -0.0000   0.0000
  41 Cl_a:3d0    0.0076  -0.0000  -0.2932   0.5607
  42 Cl_a:3d2+   0.0000  -0.0952   0.0000  -0.0000

 Molecular orbitals for symmetry species 2  (B1 )
 ------------------------------------------------

    Orbital         1        2        3        4        5        6        7
   1 Na_a:2px    0.0000   0.9989  -0.0177   0.0045   0.0136  -0.0190  -0.0249
   2 Na_a:2px    0.0000  -0.0003   0.0482  -0.0090  -0.0273   0.1110  -0.0985
   3 Na_a:2px   -0.0004  -0.0033  -0.0055  -0.1564  -0.1692   0.7203   1.0571
   5 Na_a:2px    0.0001  -0.0009   0.0048   0.0005  -1.6116  -1.8643   0.8000
   6 Na_a:2px   -0.0000   0.0001  -0.0013  -1.0049   0.9574   0.5669  -0.0745
   8 Na_a:3d1+   0.0002  -0.0061   0.0278   0.0090   0.0076  -0.1073   0.0147
   9 Na_a:3d1+  -0.0001   0.0071  -0.0023  -0.0163   0.0740   0.3029  -0.1180
  10 Na_a:3d1+  -0.0002  -0.0037   0.0035   0.0506   0.0488  -0.9068   0.1892
  11 Cl_a:2px   -0.9999  -0.0000  -0.0049  -0.0001  -0.0008  -0.0009   0.0029
  12 Cl_a:2px    0.0020   0.0023   0.9071   0.0133   0.0304  -0.0608   0.0644
  13 Cl_a:2px   -0.0009   0.0005   0.0450   0.0028   0.0174   0.0078  -0.0363
  15 Cl_a:2px    0.0009  -0.0024   0.0661   0.0085  -0.0926  -0.1748   0.2972
  16 Cl_a:2px   -0.0000   0.0033  -0.0044   0.1400   0.5731   1.2539  -2.3457
  19 Cl_a:3d1+   0.0001  -0.0007  -0.0239   0.0044   0.0033  -0.0202  -0.0286
  20 Cl_a:3d1+  -0.0000   0.0005   0.0069  -0.0150   0.0038   0.0658   0.0712

    Orbital         8        9       10       11       12       13
   1 Na_a:2px   -0.0070   0.0414  -0.2491   0.0100   0.5525   0.2147
   2 Na_a:2px   -0.1973  -0.2701  -1.6174  -0.0764   2.6709   1.0363
   3 Na_a:2px   -2.2810   1.7879   0.9377   1.0342   0.8486   0.4859
   5 Na_a:2px   -0.7677  -0.8502   0.5773  -0.0668  -0.2632   0.3622
   6 Na_a:2px    0.0932   0.2526  -0.0817   0.0245   0.0711  -0.0721
   7 Na_a:3d1+  -0.0003   0.0013  -0.0006  -0.0003  -0.0033   0.0119
   8 Na_a:3d1+  -0.1705  -0.0962   0.3667   0.2185  -0.2786   2.2125
   9 Na_a:3d1+   0.5665   1.9272  -2.4160  -0.8651   2.2729  -1.8482
  10 Na_a:3d1+  -2.3245  -0.6764   1.4774   1.2116  -0.3300   1.1428
  11 Cl_a:2px    0.0058  -0.0045   0.0030  -0.0222  -0.0052   0.0061
  12 Cl_a:2px    0.1205   0.0258   0.0475   0.2462   0.0319  -0.0945
  13 Cl_a:2px   -0.0780   0.0954  -0.0403   0.5627   0.1720  -0.2607
  15 Cl_a:2px    0.8278  -1.6909   1.8034  -1.7923  -3.2386  -0.6859
  16 Cl_a:2px    2.5483   0.1776  -1.6652  -0.2258   0.0910  -0.7902
  18 Cl_a:3d1+   0.0073   0.0249   0.0431  -0.0172   0.0973  -0.0642
  19 Cl_a:3d1+  -0.0031  -0.0856   0.0207   0.0444  -0.2031  -0.0040
  20 Cl_a:3d1+  -0.1095   0.6678  -0.2506  -0.1152   2.4970   1.0138

 Molecular orbitals for symmetry species 3  (B2 )
 ------------------------------------------------

    Orbital         1        2        3        4        5        6        7
   1 Na_a:2py    0.0000   0.9989  -0.0177   0.0045   0.0136   0.0190  -0.0249
   2 Na_a:2py    0.0000  -0.0003   0.0482  -0.0090  -0.0273  -0.1110  -0.0985
   3 Na_a:2py   -0.0004  -0.0033  -0.0055  -0.1564  -0.1692  -0.7203   1.0571
   5 Na_a:2py    0.0001  -0.0009   0.0048   0.0005  -1.6116   1.8643   0.8000
   6 Na_a:2py   -0.0000   0.0001  -0.0013  -1.0049   0.9574  -0.5669  -0.0745
   8 Na_a:3d1-   0.0002  -0.0061   0.0278   0.0090   0.0076   0.1073   0.0147
   9 Na_a:3d1-  -0.0001   0.0071  -0.0023  -0.0163   0.0740  -0.3029  -0.1180
  10 Na_a:3d1-  -0.0002  -0.0037   0.0035   0.0506   0.0488   0.9068   0.1892
  11 Cl_a:2py   -0.9999  -0.0000  -0.0049  -0.0001  -0.0008   0.0009   0.0029
  12 Cl_a:2py    0.0020   0.0023   0.9071   0.0133   0.0304   0.0608   0.0644
  13 Cl_a:2py   -0.0009   0.0005   0.0450   0.0028   0.0174  -0.0078  -0.0363
  15 Cl_a:2py    0.0009  -0.0024   0.0661   0.0085  -0.0926   0.1748   0.2972
  16 Cl_a:2py   -0.0000   0.0033  -0.0044   0.1400   0.5731  -1.2539  -2.3457
  19 Cl_a:3d1-   0.0001  -0.0007  -0.0239   0.0044   0.0033   0.0202  -0.0286
  20 Cl_a:3d1-  -0.0000   0.0005   0.0069  -0.0150   0.0038  -0.0658   0.0712

    Orbital         8        9       10       11       12       13
   1 Na_a:2py   -0.0070   0.0414  -0.2491   0.0100   0.5525   0.2147
   2 Na_a:2py   -0.1973  -0.2701  -1.6174  -0.0764   2.6709   1.0363
   3 Na_a:2py   -2.2810   1.7879   0.9377   1.0342   0.8486   0.4859
   5 Na_a:2py   -0.7677  -0.8502   0.5773  -0.0668  -0.2632   0.3622
   6 Na_a:2py    0.0932   0.2526  -0.0817   0.0245   0.0711  -0.0721
   7 Na_a:3d1-  -0.0003   0.0013  -0.0006  -0.0003  -0.0033   0.0119
   8 Na_a:3d1-  -0.1705  -0.0962   0.3667   0.2185  -0.2786   2.2125
   9 Na_a:3d1-   0.5665   1.9272  -2.4160  -0.8651   2.2729  -1.8482
  10 Na_a:3d1-  -2.3245  -0.6764   1.4774   1.2116  -0.3300   1.1428
  11 Cl_a:2py    0.0058  -0.0045   0.0030  -0.0222  -0.0052   0.0061
  12 Cl_a:2py    0.1205   0.0258   0.0475   0.2462   0.0319  -0.0945
  13 Cl_a:2py   -0.0780   0.0954  -0.0403   0.5627   0.1720  -0.2607
  15 Cl_a:2py    0.8278  -1.6909   1.8034  -1.7923  -3.2386  -0.6859
  16 Cl_a:2py    2.5483   0.1776  -1.6652  -0.2258   0.0910  -0.7902
  18 Cl_a:3d1-   0.0073   0.0249   0.0431  -0.0172   0.0973  -0.0642
  19 Cl_a:3d1-  -0.0031  -0.0856   0.0207   0.0444  -0.2031  -0.0040
  20 Cl_a:3d1-  -0.1095   0.6678  -0.2506  -0.1152   2.4970   1.0138

 Molecular orbitals for symmetry species 4  (A2 )
 ------------------------------------------------

    Orbital         1        2        3        4        5        6        7
   1 Na_a:3d2-  -0.0009   0.0018   0.0007   0.0119  -0.0016  -0.0003   1.0006
   2 Na_a:3d2-  -0.1708  -0.3306   0.0865   1.9676  -0.2581  -0.0987  -0.0951
   3 Na_a:3d2-   0.5160   2.0722  -0.5737  -2.1596   0.3354   0.1345   0.0975
   4 Na_a:3d2-  -1.3499  -1.2229  -0.0598   0.8533   0.0261   0.0419  -0.0389
   5 Cl_a:3d2-  -0.0001   0.0005   0.0032   0.0009   0.0129  -0.0445  -0.0001
   6 Cl_a:3d2-   0.0013   0.0098   0.0980   0.0149   0.1520  -1.2922  -0.0016
   7 Cl_a:3d2-  -0.0270   0.0203  -0.1799   0.0373   1.1448   1.1753   0.0068
   8 Cl_a:3d2-   0.0952  -0.1670   1.2940  -0.0543  -0.7425  -0.4698  -0.0048

    Orbital         8
   3 Na_a:3d2-  -0.0128
   5 Cl_a:3d2-  -1.0022
   6 Cl_a:3d2-   0.1641
   7 Cl_a:3d2-  -0.1049
   8 Cl_a:3d2-   0.0437

  Total CPU  time used in SIRIUS :   0.73 seconds
  Total wall time used in SIRIUS :   0.74 seconds

 
     Date and time (Linux)  : Wed Jan 11 15:38:32 2023
     Host name              : cn020                                   


                     .---------------------------------------.
                     | End of Wave Function Section (SIRIUS) |
                     `---------------------------------------'



                 .------------------------------------------------.
                 | Starting in Dynamic Property Section (RESPONS) |
                 `------------------------------------------------'


 ----------------------------------------------------------------------------------------
  RESPONSE  -  an MCSCF, MC-srDFT, DFT, SOPPA and SOPPA-srDFT response property program
 ----------------------------------------------------------------------------------------


 -------- OUTPUT FROM RESPONSE INPUT PROCESSING --------




 Linear Response calculation
 ---------------------------

 Print level                                    : IPRLR  =   2
 Maximum number of iterations                   : MAXITL =  60
 Threshold for relative convergence             : THCLR  = 1.000D-03
 Maximum iterations in optimal orbital algorithm: MAXITO =   5

  9 B-frequencies  0.000000D+00  1.227675D-02  2.455350D-02  3.683025D-02  4.910700D-02
  6.138375D-02  7.366050D-02  8.593725D-02  9.821400D-02

    1 second order properties calculated with symmetry no.    1 and labels:

          ZDIPLEN 

    1 second order properties calculated with symmetry no.    2 and labels:

          XDIPLEN 

    1 second order properties calculated with symmetry no.    3 and labels:

          YDIPLEN 


   SCF energy         :     -621.439045495794403
 -- inactive part     :     -663.355078938961242
 -- nuclear repulsion :       41.916033443166796


                     ***************************************
                     *** RHF response calculation (TDHF) ***
                     ***************************************

 ----------------------------------------------------------------
 ----- Linear response calculation
 ----- Symmetry of excitation/property operator(s)    1  ( A1 )
 ----------------------------------------------------------------

 Number of excitations of this symmetry            0
 Number of response properties of this symmetry    1
 Number of C6/C8 properties of this symmetry       0


 Perturbation symmetry.     KSYMOP:           1
 Perturbation spin symmetry.TRPLET:           F
 Orbital variables.         KZWOPT:         374
 Configuration variables.   KZCONF:           0
 Total number of variables. KZVAR :         374


 RSPLR -- linear response calculation for symmetry 1  ( A1 )
 RSPLR -- operator label : ZDIPLEN 
 RSPLR -- operator spin  :   0
 RSPLR -- frequencies    :     0.000000  0.012277  0.024553  0.036830  0.049107
                               0.061384  0.073660  0.085937  0.098214



 ---  SOLVING SETS OF LINEAR EQUATIONS FOR LINEAR RESPONSE PROPERTIES ---

 Operator symmetry = 1  ( A1 ); triplet =   F


 ** RSPCTL MICROITERATION NUMBER    1

       No.  Residual tot.,    conf., and orb.    Bnorm      Frequency 
      ----------------------------------------------------------------
         1    2.24784D+00  0.00D+00  2.25D+00  5.42D+00    0.00000D+00
         2    2.24977D+00  0.00D+00  2.25D+00  5.44D+00    1.22767D-02
         3    2.25562D+00  0.00D+00  2.26D+00  5.48D+00    2.45535D-02
         4    2.26555D+00  0.00D+00  2.27D+00  5.56D+00    3.68302D-02
         5    2.27984D+00  0.00D+00  2.28D+00  5.68D+00    4.91070D-02
         6    2.29892D+00  0.00D+00  2.30D+00  5.83D+00    6.13838D-02
         7    2.32342D+00  0.00D+00  2.32D+00  6.03D+00    7.36605D-02
         8    2.35422D+00  0.00D+00  2.35D+00  6.29D+00    8.59372D-02
         9    2.39262D+00  0.00D+00  2.39D+00  6.60D+00    9.82140D-02

 ** RSPCTL MICROITERATION NUMBER    2

       No.  Residual tot.,    conf., and orb.    Bnorm      Frequency 
      ----------------------------------------------------------------
         1    6.29074D-01  0.00D+00  6.29D-01  5.77D+00    0.00000D+00
         2    6.30280D-01  0.00D+00  6.30D-01  5.78D+00    1.22767D-02
         3    6.33941D-01  0.00D+00  6.34D-01  5.84D+00    2.45535D-02
         4    6.40194D-01  0.00D+00  6.40D-01  5.93D+00    3.68302D-02
         5    6.49283D-01  0.00D+00  6.49D-01  6.06D+00    4.91070D-02
         6    6.61581D-01  0.00D+00  6.62D-01  6.23D+00    6.13838D-02
         7    6.77641D-01  0.00D+00  6.78D-01  6.46D+00    7.36605D-02
         8    6.98260D-01  0.00D+00  6.98D-01  6.75D+00    8.59372D-02
         9    7.24604D-01  0.00D+00  7.25D-01  7.12D+00    9.82140D-02

 ** RSPCTL MICROITERATION NUMBER    3

       No.  Residual tot.,    conf., and orb.    Bnorm      Frequency 
      ----------------------------------------------------------------
         1    1.20159D-01  0.00D+00  1.20D-01  5.80D+00    0.00000D+00
         2    1.20648D-01  0.00D+00  1.21D-01  5.81D+00    1.22767D-02
         3    1.22135D-01  0.00D+00  1.22D-01  5.87D+00    2.45535D-02
         4    1.24686D-01  0.00D+00  1.25D-01  5.96D+00    3.68302D-02
         5    1.28416D-01  0.00D+00  1.28D-01  6.09D+00    4.91070D-02
         6    1.33508D-01  0.00D+00  1.34D-01  6.27D+00    6.13838D-02
         7    1.40226D-01  0.00D+00  1.40D-01  6.51D+00    7.36605D-02
         8    1.48958D-01  0.00D+00  1.49D-01  6.81D+00    8.59372D-02
         9    1.60273D-01  0.00D+00  1.60D-01  7.19D+00    9.82140D-02

 ** RSPCTL MICROITERATION NUMBER    4

       No.  Residual tot.,    conf., and orb.    Bnorm      Frequency 
      ----------------------------------------------------------------
         1    1.29123D-02  0.00D+00  1.29D-02  5.80D+00    0.00000D+00
         2    1.29773D-02  0.00D+00  1.30D-02  5.81D+00    1.22767D-02
         3    1.31754D-02  0.00D+00  1.32D-02  5.87D+00    2.45535D-02
         4    1.35168D-02  0.00D+00  1.35D-02  5.96D+00    3.68302D-02
         5    1.40197D-02  0.00D+00  1.40D-02  6.09D+00    4.91070D-02
         6    1.47126D-02  0.00D+00  1.47D-02  6.27D+00    6.13838D-02
         7    1.56386D-02  0.00D+00  1.56D-02  6.51D+00    7.36605D-02
         8    1.68615D-02  0.00D+00  1.69D-02  6.81D+00    8.59372D-02
         9    1.84780D-02  0.00D+00  1.85D-02  7.19D+00    9.82140D-02

 ** RSPCTL MICROITERATION NUMBER    5

       No.  Residual tot.,    conf., and orb.    Bnorm      Frequency 
      ----------------------------------------------------------------
         1    1.29753D-03  0.00D+00  1.30D-03  5.80D+00    0.00000D+00
         2    1.30468D-03  0.00D+00  1.30D-03  5.81D+00    1.22767D-02
         3    1.32651D-03  0.00D+00  1.33D-03  5.87D+00    2.45535D-02
         4    1.36415D-03  0.00D+00  1.36D-03  5.96D+00    3.68302D-02
         5    1.41964D-03  0.00D+00  1.42D-03  6.09D+00    4.91070D-02
         6    1.49621D-03  0.00D+00  1.50D-03  6.27D+00    6.13838D-02
         7    1.59871D-03  0.00D+00  1.60D-03  6.51D+00    7.36605D-02
         8    1.73442D-03  0.00D+00  1.73D-03  6.81D+00    8.59372D-02
         9    1.91435D-03  0.00D+00  1.91D-03  7.19D+00    9.82140D-02

 *** THE REQUESTED    9 SOLUTION VECTORS CONVERGED

 Convergence of RSP solution vectors, threshold = 1.00D-03
 ---------------------------------------------------------------
 (dimension of paired reduced space:   90)
 RSP solution vector no.    1; norm of residual   2.24D-04
 RSP solution vector no.    2; norm of residual   2.24D-04
 RSP solution vector no.    3; norm of residual   2.26D-04
 RSP solution vector no.    4; norm of residual   2.29D-04
 RSP solution vector no.    5; norm of residual   2.33D-04
 RSP solution vector no.    6; norm of residual   2.38D-04
 RSP solution vector no.    7; norm of residual   2.46D-04
 RSP solution vector no.    8; norm of residual   2.55D-04
 RSP solution vector no.    9; norm of residual   2.66D-04

 *** RSPCTL MICROITERATIONS CONVERGED


           Final output of second order properties from linear response
           ------------------------------------------------------------


@ Spin symmetry of operators: singlet

 Note that minus the linear response function: - << A; B >>(omega) is printed.
 The results are of quadratic accuracy using Sellers formula.

@ FREQUENCY INDEPENDENT SECOND ORDER PROPERTIES

@ -<< ZDIPLEN  ; ZDIPLEN  >> =  2.792369971210E+01

@ FREQUENCY DEPENDENT SECOND ORDER PROPERTIES WITH FREQUENCY :

@    a.u.:  1.2276750D-02
@    cm-1:  2.6944352D+03
@    eV  :  3.3406736D-01
@  kJ/mol:  3.2232602D+01
@    nm  :  3.7113530D+03

@ -<< ZDIPLEN  ; ZDIPLEN  >> =  2.796166375578E+01

@ FREQUENCY DEPENDENT SECOND ORDER PROPERTIES WITH FREQUENCY :

@    a.u.:  2.4553500D-02
@    cm-1:  5.3888703D+03
@    eV  :  6.6813472D-01
@  kJ/mol:  6.4465204D+01
@    nm  :  1.8556765D+03

@ -<< ZDIPLEN  ; ZDIPLEN  >> =  2.807658864708E+01

@ FREQUENCY DEPENDENT SECOND ORDER PROPERTIES WITH FREQUENCY :

@    a.u.:  3.6830250D-02
@    cm-1:  8.0833055D+03
@    eV  :  1.0022021D+00
@  kJ/mol:  9.6697806D+01
@    nm  :  1.2371177D+03

@ -<< ZDIPLEN  ; ZDIPLEN  >> =  2.827165975205E+01

@ FREQUENCY DEPENDENT SECOND ORDER PROPERTIES WITH FREQUENCY :

@    a.u.:  4.9107000D-02
@    cm-1:  1.0777741D+04
@    eV  :  1.3362694D+00
@  kJ/mol:  1.2893041D+02
@    nm  :  9.2783825D+02

@ -<< ZDIPLEN  ; ZDIPLEN  >> =  2.855249153740E+01

@ FREQUENCY DEPENDENT SECOND ORDER PROPERTIES WITH FREQUENCY :

@    a.u.:  6.1383750D-02
@    cm-1:  1.3472176D+04
@    eV  :  1.6703368D+00
@  kJ/mol:  1.6116301D+02
@    nm  :  7.4227060D+02

@ -<< ZDIPLEN  ; ZDIPLEN  >> =  2.892764378630E+01

@ FREQUENCY DEPENDENT SECOND ORDER PROPERTIES WITH FREQUENCY :

@    a.u.:  7.3660500D-02
@    cm-1:  1.6166611D+04
@    eV  :  2.0044042D+00
@  kJ/mol:  1.9339561D+02
@    nm  :  6.1855883D+02

@ -<< ZDIPLEN  ; ZDIPLEN  >> =  2.940947885129E+01

@ FREQUENCY DEPENDENT SECOND ORDER PROPERTIES WITH FREQUENCY :

@    a.u.:  8.5937250D-02
@    cm-1:  1.8861046D+04
@    eV  :  2.3384715D+00
@  kJ/mol:  2.2562822D+02
@    nm  :  5.3019329D+02

@ -<< ZDIPLEN  ; ZDIPLEN  >> =  3.001554748128E+01

@ FREQUENCY DEPENDENT SECOND ORDER PROPERTIES WITH FREQUENCY :

@    a.u.:  9.8214000D-02
@    cm-1:  2.1555481D+04
@    eV  :  2.6725389D+00
@  kJ/mol:  2.5786082D+02
@    nm  :  4.6391913D+02

@ -<< ZDIPLEN  ; ZDIPLEN  >> =  3.077085106920E+01


 Time used in linear response calculation is      0.83 CPU seconds for symmetry 1
 ----------------------------------------------------------------
 ----- Linear response calculation
 ----- Symmetry of excitation/property operator(s)    2  ( B1 )
 ----------------------------------------------------------------

 Number of excitations of this symmetry            0
 Number of response properties of this symmetry    1
 Number of C6/C8 properties of this symmetry       0


 Perturbation symmetry.     KSYMOP:           2
 Perturbation spin symmetry.TRPLET:           F
 Orbital variables.         KZWOPT:         262
 Configuration variables.   KZCONF:           0
 Total number of variables. KZVAR :         262


 RSPLR -- linear response calculation for symmetry 2  ( B1 )
 RSPLR -- operator label : XDIPLEN 
 RSPLR -- operator spin  :   0
 RSPLR -- frequencies    :     0.000000  0.012277  0.024553  0.036830  0.049107
                               0.061384  0.073660  0.085937  0.098214



 ---  SOLVING SETS OF LINEAR EQUATIONS FOR LINEAR RESPONSE PROPERTIES ---

 Operator symmetry = 2  ( B1 ); triplet =   F


 ** RSPCTL MICROITERATION NUMBER    1

       No.  Residual tot.,    conf., and orb.    Bnorm      Frequency 
      ----------------------------------------------------------------
         1    1.62063D+00  0.00D+00  1.62D+00  5.16D+00    0.00000D+00
         2    1.62151D+00  0.00D+00  1.62D+00  5.17D+00    1.22767D-02
         3    1.62415D+00  0.00D+00  1.62D+00  5.21D+00    2.45535D-02
         4    1.62863D+00  0.00D+00  1.63D+00  5.28D+00    3.68302D-02
         5    1.63504D+00  0.00D+00  1.64D+00  5.38D+00    4.91070D-02
         6    1.64358D+00  0.00D+00  1.64D+00  5.51D+00    6.13838D-02
         7    1.65448D+00  0.00D+00  1.65D+00  5.67D+00    7.36605D-02
         8    1.66814D+00  0.00D+00  1.67D+00  5.89D+00    8.59372D-02
         9    1.68509D+00  0.00D+00  1.69D+00  6.15D+00    9.82140D-02

 ** RSPCTL MICROITERATION NUMBER    2

       No.  Residual tot.,    conf., and orb.    Bnorm      Frequency 
      ----------------------------------------------------------------
         1    3.75383D-01  0.00D+00  3.75D-01  5.40D+00    0.00000D+00
         2    3.75536D-01  0.00D+00  3.76D-01  5.41D+00    1.22767D-02
         3    3.75996D-01  0.00D+00  3.76D-01  5.46D+00    2.45535D-02
         4    3.76771D-01  0.00D+00  3.77D-01  5.53D+00    3.68302D-02
         5    3.77874D-01  0.00D+00  3.78D-01  5.65D+00    4.91070D-02
         6    3.79329D-01  0.00D+00  3.79D-01  5.80D+00    6.13838D-02
         7    3.81178D-01  0.00D+00  3.81D-01  6.00D+00    7.36605D-02
         8    3.83491D-01  0.00D+00  3.83D-01  6.25D+00    8.59372D-02
         9    3.86400D-01  0.00D+00  3.86D-01  6.58D+00    9.82140D-02

 ** RSPCTL MICROITERATION NUMBER    3

       No.  Residual tot.,    conf., and orb.    Bnorm      Frequency 
      ----------------------------------------------------------------
         1    1.91476D-02  0.00D+00  1.91D-02  5.40D+00    0.00000D+00
         2    1.91965D-02  0.00D+00  1.92D-02  5.42D+00    1.22767D-02
         3    1.93475D-02  0.00D+00  1.93D-02  5.46D+00    2.45535D-02
         4    1.96139D-02  0.00D+00  1.96D-02  5.54D+00    3.68302D-02
         5    2.00202D-02  0.00D+00  2.00D-02  5.65D+00    4.91070D-02
         6    2.06057D-02  0.00D+00  2.06D-02  5.80D+00    6.13838D-02
         7    2.14314D-02  0.00D+00  2.14D-02  6.00D+00    7.36605D-02
         8    2.25910D-02  0.00D+00  2.26D-02  6.26D+00    8.59372D-02
         9    2.42302D-02  0.00D+00  2.42D-02  6.59D+00    9.82140D-02

 ** RSPCTL MICROITERATION NUMBER    4

       No.  Residual tot.,    conf., and orb.    Bnorm      Frequency 
      ----------------------------------------------------------------
         1    2.96654D-03  0.00D+00  2.97D-03  5.40D+00    0.00000D+00
         2    2.98157D-03  0.00D+00  2.98D-03  5.42D+00    1.22767D-02
         3    3.02867D-03  0.00D+00  3.03D-03  5.46D+00    2.45535D-02
         4    3.11419D-03  0.00D+00  3.11D-03  5.54D+00    3.68302D-02
         5    3.24981D-03  0.00D+00  3.25D-03  5.65D+00    4.91070D-02
         6    3.45438D-03  0.00D+00  3.45D-03  5.80D+00    6.13838D-02
         7    3.75669D-03  0.00D+00  3.76D-03  6.00D+00    7.36605D-02
         8    4.20003D-03  0.00D+00  4.20D-03  6.26D+00    8.59372D-02
         9    4.84950D-03  0.00D+00  4.85D-03  6.59D+00    9.82140D-02

 *** THE REQUESTED    9 SOLUTION VECTORS CONVERGED

 Convergence of RSP solution vectors, threshold = 1.00D-03
 ---------------------------------------------------------------
 (dimension of paired reduced space:   72)
 RSP solution vector no.    1; norm of residual   5.49D-04
 RSP solution vector no.    2; norm of residual   5.50D-04
 RSP solution vector no.    3; norm of residual   5.54D-04
 RSP solution vector no.    4; norm of residual   5.62D-04
 RSP solution vector no.    5; norm of residual   5.75D-04
 RSP solution vector no.    6; norm of residual   5.95D-04
 RSP solution vector no.    7; norm of residual   6.26D-04
 RSP solution vector no.    8; norm of residual   6.71D-04
 RSP solution vector no.    9; norm of residual   7.36D-04

 *** RSPCTL MICROITERATIONS CONVERGED


           Final output of second order properties from linear response
           ------------------------------------------------------------


@ Spin symmetry of operators: singlet

 Note that minus the linear response function: - << A; B >>(omega) is printed.
 The results are of quadratic accuracy using Sellers formula.

@ FREQUENCY INDEPENDENT SECOND ORDER PROPERTIES

@ -<< XDIPLEN  ; XDIPLEN  >> =  2.568465995443E+01

@ FREQUENCY DEPENDENT SECOND ORDER PROPERTIES WITH FREQUENCY :

@    a.u.:  1.2276750D-02
@    cm-1:  2.6944352D+03
@    eV  :  3.3406736D-01
@  kJ/mol:  3.2232602D+01
@    nm  :  3.7113530D+03

@ -<< XDIPLEN  ; XDIPLEN  >> =  2.571547215639E+01

@ FREQUENCY DEPENDENT SECOND ORDER PROPERTIES WITH FREQUENCY :

@    a.u.:  2.4553500D-02
@    cm-1:  5.3888703D+03
@    eV  :  6.6813472D-01
@  kJ/mol:  6.4465204D+01
@    nm  :  1.8556765D+03

@ -<< XDIPLEN  ; XDIPLEN  >> =  2.580869943453E+01

@ FREQUENCY DEPENDENT SECOND ORDER PROPERTIES WITH FREQUENCY :

@    a.u.:  3.6830250D-02
@    cm-1:  8.0833055D+03
@    eV  :  1.0022021D+00
@  kJ/mol:  9.6697806D+01
@    nm  :  1.2371177D+03

@ -<< XDIPLEN  ; XDIPLEN  >> =  2.596678381828E+01

@ FREQUENCY DEPENDENT SECOND ORDER PROPERTIES WITH FREQUENCY :

@    a.u.:  4.9107000D-02
@    cm-1:  1.0777741D+04
@    eV  :  1.3362694D+00
@  kJ/mol:  1.2893041D+02
@    nm  :  9.2783825D+02

@ -<< XDIPLEN  ; XDIPLEN  >> =  2.619404269175E+01

@ FREQUENCY DEPENDENT SECOND ORDER PROPERTIES WITH FREQUENCY :

@    a.u.:  6.1383750D-02
@    cm-1:  1.3472176D+04
@    eV  :  1.6703368D+00
@  kJ/mol:  1.6116301D+02
@    nm  :  7.4227060D+02

@ -<< XDIPLEN  ; XDIPLEN  >> =  2.649709369568E+01

@ FREQUENCY DEPENDENT SECOND ORDER PROPERTIES WITH FREQUENCY :

@    a.u.:  7.3660500D-02
@    cm-1:  1.6166611D+04
@    eV  :  2.0044042D+00
@  kJ/mol:  1.9339561D+02
@    nm  :  6.1855883D+02

@ -<< XDIPLEN  ; XDIPLEN  >> =  2.688557846014E+01

@ FREQUENCY DEPENDENT SECOND ORDER PROPERTIES WITH FREQUENCY :

@    a.u.:  8.5937250D-02
@    cm-1:  1.8861046D+04
@    eV  :  2.3384715D+00
@  kJ/mol:  2.2562822D+02
@    nm  :  5.3019329D+02

@ -<< XDIPLEN  ; XDIPLEN  >> =  2.737337645605E+01

@ FREQUENCY DEPENDENT SECOND ORDER PROPERTIES WITH FREQUENCY :

@    a.u.:  9.8214000D-02
@    cm-1:  2.1555481D+04
@    eV  :  2.6725389D+00
@  kJ/mol:  2.5786082D+02
@    nm  :  4.6391913D+02

@ -<< XDIPLEN  ; XDIPLEN  >> =  2.798069073800E+01


 Time used in linear response calculation is      0.67 CPU seconds for symmetry 2
 ----------------------------------------------------------------
 ----- Linear response calculation
 ----- Symmetry of excitation/property operator(s)    3  ( B2 )
 ----------------------------------------------------------------

 Number of excitations of this symmetry            0
 Number of response properties of this symmetry    1
 Number of C6/C8 properties of this symmetry       0


 Perturbation symmetry.     KSYMOP:           3
 Perturbation spin symmetry.TRPLET:           F
 Orbital variables.         KZWOPT:         262
 Configuration variables.   KZCONF:           0
 Total number of variables. KZVAR :         262


 RSPLR -- linear response calculation for symmetry 3  ( B2 )
 RSPLR -- operator label : YDIPLEN 
 RSPLR -- operator spin  :   0
 RSPLR -- frequencies    :     0.000000  0.012277  0.024553  0.036830  0.049107
                               0.061384  0.073660  0.085937  0.098214



 ---  SOLVING SETS OF LINEAR EQUATIONS FOR LINEAR RESPONSE PROPERTIES ---

 Operator symmetry = 3  ( B2 ); triplet =   F


 ** RSPCTL MICROITERATION NUMBER    1

       No.  Residual tot.,    conf., and orb.    Bnorm      Frequency 
      ----------------------------------------------------------------
         1    1.65074D+00  0.00D+00  1.65D+00  5.16D+00    0.00000D+00
         2    1.65165D+00  0.00D+00  1.65D+00  5.17D+00    1.22767D-02
         3    1.65440D+00  0.00D+00  1.65D+00  5.21D+00    2.45535D-02
         4    1.65905D+00  0.00D+00  1.66D+00  5.28D+00    3.68302D-02
         5    1.66572D+00  0.00D+00  1.67D+00  5.38D+00    4.91070D-02
         6    1.67459D+00  0.00D+00  1.67D+00  5.51D+00    6.13838D-02
         7    1.68591D+00  0.00D+00  1.69D+00  5.67D+00    7.36605D-02
         8    1.70006D+00  0.00D+00  1.70D+00  5.89D+00    8.59372D-02
         9    1.71761D+00  0.00D+00  1.72D+00  6.15D+00    9.82140D-02

 ** RSPCTL MICROITERATION NUMBER    2

       No.  Residual tot.,    conf., and orb.    Bnorm      Frequency 
      ----------------------------------------------------------------
         1    3.82374D-01  0.00D+00  3.82D-01  5.40D+00    0.00000D+00
         2    3.82531D-01  0.00D+00  3.83D-01  5.41D+00    1.22767D-02
         3    3.83002D-01  0.00D+00  3.83D-01  5.46D+00    2.45535D-02
         4    3.83796D-01  0.00D+00  3.84D-01  5.53D+00    3.68302D-02
         5    3.84923D-01  0.00D+00  3.85D-01  5.65D+00    4.91070D-02
         6    3.86407D-01  0.00D+00  3.86D-01  5.80D+00    6.13838D-02
         7    3.88284D-01  0.00D+00  3.88D-01  6.00D+00    7.36605D-02
         8    3.90623D-01  0.00D+00  3.91D-01  6.25D+00    8.59372D-02
         9    3.93548D-01  0.00D+00  3.94D-01  6.58D+00    9.82140D-02

 ** RSPCTL MICROITERATION NUMBER    3

       No.  Residual tot.,    conf., and orb.    Bnorm      Frequency 
      ----------------------------------------------------------------
         1    1.82717D-02  0.00D+00  1.83D-02  5.40D+00    0.00000D+00
         2    1.83161D-02  0.00D+00  1.83D-02  5.42D+00    1.22767D-02
         3    1.84538D-02  0.00D+00  1.85D-02  5.46D+00    2.45535D-02
         4    1.86995D-02  0.00D+00  1.87D-02  5.54D+00    3.68302D-02
         5    1.90798D-02  0.00D+00  1.91D-02  5.65D+00    4.91070D-02
         6    1.96385D-02  0.00D+00  1.96D-02  5.80D+00    6.13838D-02
         7    2.04440D-02  0.00D+00  2.04D-02  6.00D+00    7.36605D-02
         8    2.16024D-02  0.00D+00  2.16D-02  6.26D+00    8.59372D-02
         9    2.32810D-02  0.00D+00  2.33D-02  6.59D+00    9.82140D-02

 ** RSPCTL MICROITERATION NUMBER    4

       No.  Residual tot.,    conf., and orb.    Bnorm      Frequency 
      ----------------------------------------------------------------
         1    3.09683D-03  0.00D+00  3.10D-03  5.40D+00    0.00000D+00
         2    3.11220D-03  0.00D+00  3.11D-03  5.42D+00    1.22767D-02
         3    3.16055D-03  0.00D+00  3.16D-03  5.46D+00    2.45535D-02
         4    3.24904D-03  0.00D+00  3.25D-03  5.54D+00    3.68302D-02
         5    3.39100D-03  0.00D+00  3.39D-03  5.65D+00    4.91070D-02
         6    3.60813D-03  0.00D+00  3.61D-03  5.80D+00    6.13838D-02
         7    3.93414D-03  0.00D+00  3.93D-03  6.00D+00    7.36605D-02
         8    4.42031D-03  0.00D+00  4.42D-03  6.26D+00    8.59372D-02
         9    5.14472D-03  0.00D+00  5.14D-03  6.59D+00    9.82140D-02

 *** THE REQUESTED    9 SOLUTION VECTORS CONVERGED

 Convergence of RSP solution vectors, threshold = 1.00D-03
 ---------------------------------------------------------------
 (dimension of paired reduced space:   72)
 RSP solution vector no.    1; norm of residual   5.73D-04
 RSP solution vector no.    2; norm of residual   5.75D-04
 RSP solution vector no.    3; norm of residual   5.79D-04
 RSP solution vector no.    4; norm of residual   5.87D-04
 RSP solution vector no.    5; norm of residual   6.00D-04
 RSP solution vector no.    6; norm of residual   6.22D-04
 RSP solution vector no.    7; norm of residual   6.55D-04
 RSP solution vector no.    8; norm of residual   7.06D-04
 RSP solution vector no.    9; norm of residual   7.81D-04

 *** RSPCTL MICROITERATIONS CONVERGED


           Final output of second order properties from linear response
           ------------------------------------------------------------


@ Spin symmetry of operators: singlet

 Note that minus the linear response function: - << A; B >>(omega) is printed.
 The results are of quadratic accuracy using Sellers formula.

@ FREQUENCY INDEPENDENT SECOND ORDER PROPERTIES

@ -<< YDIPLEN  ; YDIPLEN  >> =  2.568465998081E+01

@ FREQUENCY DEPENDENT SECOND ORDER PROPERTIES WITH FREQUENCY :

@    a.u.:  1.2276750D-02
@    cm-1:  2.6944352D+03
@    eV  :  3.3406736D-01
@  kJ/mol:  3.2232602D+01
@    nm  :  3.7113530D+03

@ -<< YDIPLEN  ; YDIPLEN  >> =  2.571547217719E+01

@ FREQUENCY DEPENDENT SECOND ORDER PROPERTIES WITH FREQUENCY :

@    a.u.:  2.4553500D-02
@    cm-1:  5.3888703D+03
@    eV  :  6.6813472D-01
@  kJ/mol:  6.4465204D+01
@    nm  :  1.8556765D+03

@ -<< YDIPLEN  ; YDIPLEN  >> =  2.580869943726E+01

@ FREQUENCY DEPENDENT SECOND ORDER PROPERTIES WITH FREQUENCY :

@    a.u.:  3.6830250D-02
@    cm-1:  8.0833055D+03
@    eV  :  1.0022021D+00
@  kJ/mol:  9.6697806D+01
@    nm  :  1.2371177D+03

@ -<< YDIPLEN  ; YDIPLEN  >> =  2.596678378594E+01

@ FREQUENCY DEPENDENT SECOND ORDER PROPERTIES WITH FREQUENCY :

@    a.u.:  4.9107000D-02
@    cm-1:  1.0777741D+04
@    eV  :  1.3362694D+00
@  kJ/mol:  1.2893041D+02
@    nm  :  9.2783825D+02

@ -<< YDIPLEN  ; YDIPLEN  >> =  2.619404259820E+01

@ FREQUENCY DEPENDENT SECOND ORDER PROPERTIES WITH FREQUENCY :

@    a.u.:  6.1383750D-02
@    cm-1:  1.3472176D+04
@    eV  :  1.6703368D+00
@  kJ/mol:  1.6116301D+02
@    nm  :  7.4227060D+02

@ -<< YDIPLEN  ; YDIPLEN  >> =  2.649709349757E+01

@ FREQUENCY DEPENDENT SECOND ORDER PROPERTIES WITH FREQUENCY :

@    a.u.:  7.3660500D-02
@    cm-1:  1.6166611D+04
@    eV  :  2.0044042D+00
@  kJ/mol:  1.9339561D+02
@    nm  :  6.1855883D+02

@ -<< YDIPLEN  ; YDIPLEN  >> =  2.688557808196E+01

@ FREQUENCY DEPENDENT SECOND ORDER PROPERTIES WITH FREQUENCY :

@    a.u.:  8.5937250D-02
@    cm-1:  1.8861046D+04
@    eV  :  2.3384715D+00
@  kJ/mol:  2.2562822D+02
@    nm  :  5.3019329D+02

@ -<< YDIPLEN  ; YDIPLEN  >> =  2.737337576034E+01

@ FREQUENCY DEPENDENT SECOND ORDER PROPERTIES WITH FREQUENCY :

@    a.u.:  9.8214000D-02
@    cm-1:  2.1555481D+04
@    eV  :  2.6725389D+00
@  kJ/mol:  2.5786082D+02
@    nm  :  4.6391913D+02

@ -<< YDIPLEN  ; YDIPLEN  >> =  2.798068946266E+01


 Time used in linear response calculation is      0.68 CPU seconds for symmetry 3

  Total CPU  time used in RESPONSE:   2.18 seconds
  Total wall time used in RESPONSE:   2.20 seconds


                   .-------------------------------------------.
                   | End of Dynamic Property Section (RESPONS) |
                   `-------------------------------------------'

  Total CPU  time used in DALTON:   3.14 seconds
  Total wall time used in DALTON:   3.19 seconds

 
     Date and time (Linux)  : Wed Jan 11 15:38:34 2023
     Host name              : cn020                                   
