

     ************************************************************************
     *************** Dalton - An Electronic Structure Program ***************
     ************************************************************************

    This is output from DALTON release Dalton2020.0 (2020)
         ( Web site: http://daltonprogram.org )

   ----------------------------------------------------------------------------

    NOTE:
     
    Dalton is an experimental code for the evaluation of molecular
    properties using (MC)SCF, DFT, CI, and CC wave functions.
    The authors accept no responsibility for the performance of
    the code or for the correctness of the results.
     
    The code (in whole or part) is provided under a licence and
    is not to be reproduced for further distribution without
    the written permission of the authors or their representatives.
     
    See the home page "http://daltonprogram.org" for further information.
     
    If results obtained with this code are published,
    the appropriate citations would be both of:
     
       K. Aidas, C. Angeli, K. L. Bak, V. Bakken, R. Bast,
       L. Boman, O. Christiansen, R. Cimiraglia, S. Coriani,
       P. Dahle, E. K. Dalskov, U. Ekstroem,
       T. Enevoldsen, J. J. Eriksen, P. Ettenhuber, B. Fernandez,
       L. Ferrighi, H. Fliegl, L. Frediani, K. Hald, A. Halkier,
       C. Haettig, H. Heiberg, T. Helgaker, A. C. Hennum,
       H. Hettema, E. Hjertenaes, S. Hoest, I.-M. Hoeyvik,
       M. F. Iozzi, B. Jansik, H. J. Aa. Jensen, D. Jonsson,
       P. Joergensen, J. Kauczor, S. Kirpekar,
       T. Kjaergaard, W. Klopper, S. Knecht, R. Kobayashi, H. Koch,
       J. Kongsted, A. Krapp, K. Kristensen, A. Ligabue,
       O. B. Lutnaes, J. I. Melo, K. V. Mikkelsen, R. H. Myhre,
       C. Neiss, C. B. Nielsen, P. Norman, J. Olsen,
       J. M. H. Olsen, A. Osted, M. J. Packer, F. Pawlowski,
       T. B. Pedersen, P. F. Provasi, S. Reine, Z. Rinkevicius,
       T. A. Ruden, K. Ruud, V. Rybkin, P. Salek, C. C. M. Samson,
       A. Sanchez de Meras, T. Saue, S. P. A. Sauer,
       B. Schimmelpfennig, K. Sneskov, A. H. Steindal,
       K. O. Sylvester-Hvid, P. R. Taylor, A. M. Teale,
       E. I. Tellgren, D. P. Tew, A. J. Thorvaldsen, L. Thoegersen,
       O. Vahtras, M. A. Watson, D. J. D. Wilson, M. Ziolkowski
       and H. Agren,
       "The Dalton quantum chemistry program system",
       WIREs Comput. Mol. Sci. 2014, 4:269–284 (doi: 10.1002/wcms.1172)
     
    and
     
       Dalton, a molecular electronic structure program,
       Release Dalton2020.0 (2020), see http://daltonprogram.org
   ----------------------------------------------------------------------------

    Authors in alphabetical order (Major contribution(s) in parenthesis):

  Kestutis Aidas,           Vilnius University,           Lithuania   (QM/MM)
  Celestino Angeli,         University of Ferrara,        Italy       (NEVPT2)
  Keld L. Bak,              UNI-C,                        Denmark     (AOSOPPA, non-adiabatic coupling, magnetic properties)
  Vebjoern Bakken,          University of Oslo,           Norway      (DALTON; geometry optimizer, symmetry detection)
  Radovan Bast,             UiT The Arctic U. of Norway,  Norway      (DALTON installation and execution frameworks)
  Pablo Baudin,             University of Valencia,       Spain       (Cholesky excitation energies)
  Linus Boman,              NTNU,                         Norway      (Cholesky decomposition and subsystems)
  Bruno N. Cabral Tenorio,  Technical Univ. of Denmark,   Denmark     (Lanczos-based CC methods)
  Ove Christiansen,         Aarhus University,            Denmark     (CC module)
  Renzo Cimiraglia,         University of Ferrara,        Italy       (NEVPT2)
  Sonia Coriani,            Technical Univ. of Denmark,   Denmark     (CC and RESPONS modules)
  Janusz Cukras,            University of Warsaw,         Poland      (MChD in RESPONS)
  Paal Dahle,               University of Oslo,           Norway      (Parallelization)
  Erik K. Dalskov,          UNI-C,                        Denmark     (SOPPA)
  Thomas Enevoldsen,        Univ. of Southern Denmark,    Denmark     (SOPPA)
  Janus J. Eriksen,         Aarhus University,            Denmark     (Polarizable embedding, TDA)
  Rasmus Faber,             Technical Univ. of Denmark,   Denmark     (Vib.avg. NMR w. SOPPA, parallel AO-SOPPA, CVS-CC and EOMCC)
  Tobias Fahleson,          KTH Stockholm,                Sweden      (Damped cubic response)
  Berta Fernandez,          U. of Santiago de Compostela, Spain       (Doublet spin, ESR in RESPONS)
  Lara Ferrighi,            Aarhus University,            Denmark     (PCM Cubic response)
  Heike Fliegl,             University of Oslo,           Norway      (CCSD(R12))
  Luca Frediani,            UiT The Arctic U. of Norway,  Norway      (PCM)
  Emmanuel Fromager,        Univ. Strasbourg,             France      (MC-srDFT)
  Bin Gao,                  UiT The Arctic U. of Norway,  Norway      (Gen1Int library)
  Andre S. P. Gomes,        CNRS/Universite de Lille,     France      (Frozen density embedding)
  Christof Haettig,         Ruhr-University Bochum,       Germany     (CC module)
  Kasper Hald,              Aarhus University,            Denmark     (CC module)
  Asger Halkier,            Aarhus University,            Denmark     (CC module)
  Frederik Beyer Hansen,    University of Copenhagen,     Denmark     (Parallel AO-SOPPA)
  Erik D. Hedegaard,        Univ. of Southern Denmark,    Denmark     (Polarizable embedding, QM/MM, and MC-srDFT)
  Hanne Heiberg,            University of Oslo,           Norway      (Geometry analysis, selected one-electron integrals)
  Trygve Helgaker,          University of Oslo,           Norway      (DALTON; ABACUS, ERI, DFT modules, London, and much more)
  Alf Christian Hennum,     University of Oslo,           Norway      (Parity violation)
  Hinne Hettema,            University of Auckland,       New Zealand (Quadratic response in RESPONS; SIRIUS supersymmetry)
  Eirik Hjertenaes,         NTNU,                         Norway      (Cholesky decomposition)
  Pi A. B. Haase,           University of Copenhagen,     Denmark     (Triplet AO-SOPPA)
  Maria Francesca Iozzi,    University of Oslo,           Norway      (RPA)
  Christoph Jacob           TU Braunschweig               Germany     (Frozen density embedding)
  Brano Jansik              Technical Univ. of Ostrava    Czech Rep.  (DFT cubic response)
  Hans Joergen Aa. Jensen,  Univ. of Southern Denmark,    Denmark     (DALTON; SIRIUS, RESPONS, ABACUS, MC-srDFT, and much more)
  Dan Jonsson,              UiT The Arctic U. of Norway,  Norway      (Cubic response in RESPONS module)
  Poul Joergensen,          Aarhus University,            Denmark     (RESPONS, ABACUS, and CC modules)
  Maciej Kaminski,          University of Warsaw,         Poland      (CPPh in RESPONS)
  Joanna Kauczor,           Linkoeping University,        Sweden      (Complex polarization propagator (CPP) module)
  Sheela Kirpekar,          Univ. of Southern Denmark,    Denmark     (Mass-velocity & Darwin integrals)
  Erik Kjellgren,           Univ. of Southern Denmark,    Denmark     (MC-srDFT)
  Wim Klopper,              KIT Karlsruhe,                Germany     (R12 code in CC, SIRIUS, and ABACUS modules)
  Stefan Knecht,            ETH Zurich,                   Switzerland (Parallel CI and MCSCF, MC-srDFT)
  Rika Kobayashi,           Australian National Univ.,    Australia   (DIIS in CC, London in MCSCF)
  Henrik Koch,              NTNU,                         Norway      (CC module, Cholesky decomposition)
  Jacob Kongsted,           Univ. of Southern Denmark,    Denmark     (Polarizable embedding, polarizable density embedding, QM/MM)
  Andrea Ligabue,           University of Modena,         Italy       (CTOCD, AOSOPPA)
  Nanna H. List             Univ. of Southern Denmark,    Denmark     (Polarizable embedding)
  Ola B. Lutnaes,           University of Oslo,           Norway      (DFT Hessian)
  Juan I. Melo,             University of Buenos Aires,   Argentina   (LRESC, Relativistic Effects on NMR Shieldings)
  Kurt V. Mikkelsen,        University of Copenhagen,     Denmark     (MC-SCRF and QM/MM)
  Rolf H. Myhre,            NTNU,                         Norway      (Subsystems and CC3)
  Christian Neiss,          Univ. Erlangen-Nuernberg,     Germany     (CCSD(R12))
  Christian B. Nielsen,     University of Copenhagen,     Denmark     (QM/MM)
  Patrick Norman,           KTH Stockholm,                Sweden      (Cubic response and complex frequency response in RESPONS)
  Jeppe Olsen,              Aarhus University,            Denmark     (SIRIUS CI/density modules)
  Jogvan Magnus H. Olsen,   Aarhus University,            Denmark     (Polarizable embedding and polarizable density embedding)
  Anders Osted,             Copenhagen University,        Denmark     (QM/MM)
  Martin J. Packer,         University of Sheffield,      UK          (SOPPA)
  Filip Pawlowski,          Kazimierz Wielki University,  Poland      (CC3)
  Morten N. Pedersen,       Univ. of Southern Denmark,    Denmark     (Polarizable embedding)
  Thomas B. Pedersen,       University of Oslo,           Norway      (Cholesky decomposition)
  Patricio F. Provasi,      University of Northeastern,   Argentina   (Analysis of coupling constants in localized orbitals)
  Peter Reinholdt,          Univ. of Southern Denmark,    Denmark     (Polarizable embedding and polarizable density embedding)
  Zilvinas Rinkevicius,     KTH Stockholm,                Sweden      (open-shell DFT, ESR)
  Elias Rudberg,            KTH Stockholm,                Sweden      (DFT grid and basis info)
  Torgeir A. Ruden,         University of Oslo,           Norway      (Numerical derivatives in ABACUS)
  Kenneth Ruud,             UiT The Arctic U. of Norway,  Norway      (DALTON; ABACUS magnetic properties and much more)
  Pawel Salek,              KTH Stockholm,                Sweden      (DALTON; DFT code)
  Claire C. M. Samson       University of Karlsruhe       Germany     (Boys localization, r12 integrals in ERI)
  Alfredo Sanchez de Meras, University of Valencia,       Spain       (CC module, Cholesky decomposition)
  Trond Saue,               Paul Sabatier University,     France      (direct Fock matrix construction)
  Stephan P. A. Sauer,      University of Copenhagen,     Denmark     (SOPPA(CCSD), SOPPA prop., AOSOPPA, vibrational g-factors)
  Bernd Schimmelpfennig,    Forschungszentrum Karlsruhe,  Germany     (AMFI module)
  Anna K. Schnack-Petersen, University of Copenhagen,     Denmark     (RPA(D) and HRPA(D) properties in AOSOPPA)
  Kristian Sneskov,         Aarhus University,            Denmark     (Polarizable embedding, QM/MM)
  Arnfinn H. Steindal,      UiT The Arctic U. of Norway,  Norway      (parallel QM/MM, polarizable embedding)
  Casper Steinmann,         Aalborg University,           Denmark     (QFIT, polarizable embedding)
  K. O. Sylvester-Hvid,     University of Copenhagen,     Denmark     (MC-SCRF)
  Peter R. Taylor,          VLSCI/Univ. of Melbourne,     Australia   (Symmetry handling ABACUS, integral transformation)
  Andrew M. Teale,          University of Nottingham,     England     (DFT-AC, DFT-D)
  David P. Tew,             University of Bristol,        England     (CCSD(R12))
  Julien Toulouse,          Sorbonne Univ.,               France      (MC-srDFT)
  Olav Vahtras,             KTH Stockholm,                Sweden      (Triplet response, spin-orbit, ESR, TDDFT, open-shell DFT)
  Lucas Visscher,           Vrije Universiteit Amsterdam, Netherlands (Frozen density embedding)
  David J. Wilson,          La Trobe University,          Australia   (DFT Hessian and DFT magnetizabilities)
  Hans Agren,               KTH Stockholm,                Sweden      (SIRIUS module, RESPONS, MC-SCRF solvation)
 --------------------------------------------------------------------------------

     Date and time (Linux)  : Wed Jan 11 14:14:17 2023
     Host name              : cn042                                   

 * Work memory size             :    64000000 =  488.28 megabytes.

 * Directories for basis set searches:
   1) /gpfs/projects/rjh/adrian/fd_compare/dalton/hf/NaCl/dipole
   2) /gpfs/projects/rjh/adrian/dalton/build/basis


Compilation information
-----------------------

 Who compiled             | ahurtado
 Host                     | sn-mem
 System                   | Linux-3.10.0-1160.24.1.el7.x86_64
 CMake generator          | Unix Makefiles
 Processor                | x86_64
 64-bit integers          | OFF
 MPI                      | ON
 Fortran compiler         | /gpfs/software/intel/oneAPI/2021_4/mpi/2021.4.0/bi
                          | n/mpif90
 Fortran compiler version | GNU Fortran (GCC) 11.2.0
 C compiler               | /gpfs/software/intel/oneAPI/2021_4/mpi/2021.4.0/bi
                          | n/mpicc
 C compiler version       | gcc (GCC) 11.2.0
 C++ compiler             | /gpfs/software/intel/oneAPI/2021_4/mpi/2021.4.0/bi
                          | n/mpicxx
 C++ compiler version     | unknown
 BLAS                     | /gpfs/software/intel/oneAPI/2021_4/mkl/2021.4.0/li
                          | b/intel64/libmkl_gf_lp64.so;/gpfs/software/intel/o
                          | neAPI/2021_4/mkl/2021.4.0/lib/intel64/libmkl_seque
                          | ntial.so;/gpfs/software/intel/oneAPI/2021_4/mkl/20
                          | 21.4.0/lib/intel64/libmkl_core.so;/usr/lib64/libpt
                          | hread.so;/usr/lib64/libm.so
 LAPACK                   | /gpfs/software/intel/oneAPI/2021_4/mkl/2021.4.0/li
                          | b/intel64/libmkl_lapack95_lp64.a;/gpfs/software/in
                          | tel/oneAPI/2021_4/mkl/2021.4.0/lib/intel64/libmkl_
                          | gf_lp64.so
 Static linking           | OFF
 Last Git revision        | 66052b3af5ea7225e31178bf9a8b031913c72190
 Git branch               | (HEAD detached at Dalton2020.0)
 Configuration time       | 2023-01-11 13:33:37.731835

 * MPI parallel run using 20 processes.


   Content of the .dal input file
 ----------------------------------

**DALTON INPUT
.RUN RESPONSE
.DIRECT
**WAVE FUNCTIONS
.HF
**RESPONSE
*LINEAR
.DIPLEN
.FREQUENCIES
9
0.0 0.01227675 0.0245535 0.036830249999999995 0.049107 0.06138375 0.07366049999999999 0.085937249999
**END OF DALTON INPUT


   Content of the .mol file
 ----------------------------

BASIS
aug-cc-pVDZ
blah
blah
Atomtype=2 Atomic
Charge=11 Atoms=1
Na_a 0.000000000000 0.000000000000 0.000000000000
Charge=17 Atoms=1
Cl_a 0.000000000000 0.000000000000 4.461300000000


       *******************************************************************
       *********** Output from DALTON general input processing ***********
       *******************************************************************

 --------------------------------------------------------------------------------
   Overall default print level:    0
   Print level for DALTON.STAT:    1

    Parallel calculation using MPI
    AO-direct calculation (in sections where implemented)
    HERMIT 1- and 2-electron integral sections will be executed
    "Old" integral transformation used (limited to max 255 basis functions)
    Wave function sections will be executed (SIRIUS module)
    Dynamic molecular response properties section will be executed (RESPONSE module)
 --------------------------------------------------------------------------------


   ****************************************************************************
   *************** Output of molecule and basis set information ***************
   ****************************************************************************


    The two title cards from your ".mol" input:
    ------------------------------------------------------------------------
 1: blah                                                                    
 2: blah                                                                    
    ------------------------------------------------------------------------

  Atomic type no.    1
  --------------------
  Nuclear charge:  11.00000
  Number of symmetry independent centers:    1
  Number of basis sets to read;    2
  Basis set file used for this atomic type with Z =  11 :
     "/gpfs/projects/rjh/adrian/dalton/build/basis/aug-cc-pVDZ"

  Atomic type no.    2
  --------------------
  Nuclear charge:  17.00000
  Number of symmetry independent centers:    1
  Number of basis sets to read;    2
  Basis set file used for this atomic type with Z =  17 :
     "/gpfs/projects/rjh/adrian/dalton/build/basis/aug-cc-pVDZ"


                      SYMADD: Requested addition of symmetry
                      --------------------------------------

 Symmetry test threshold:  5.00E-06

@   The molecule is centered at center of mass and rotated
@   so principal axes of inertia are along coordinate axes.

 Symmetry class found: C(oo,v)        

 Symmetry Independent Centres             
 ----------------------------
Cl_a  17 :      0.00000000     0.00000000     1.76961176  Isotope  1
Na_a  11 :      0.00000000     0.00000000    -2.69168824  Isotope  1

 The following symmetry elements were found:   X  Y     


                         SYMGRP: Point group information
                         -------------------------------

@    Full point group is: C(oo,v)        
@    Represented as:      C2v

@  * The irrep name for each symmetry:    1: A1     2: B1     3: B2     4: A2 

   * The point group was generated by:

      Reflection in the yz-plane
      Reflection in the xz-plane

   * Group multiplication table

        |  E   C2z  Oxz  Oyz
   -----+--------------------
     E  |  E   C2z  Oxz  Oyz
    C2z | C2z   E   Oyz  Oxz
    Oxz | Oxz  Oyz   E   C2z
    Oyz | Oyz  Oxz  C2z   E 

   * Character table

        |  E   C2z  Oxz  Oyz
   -----+--------------------
    A1  |   1    1    1    1
    B1  |   1   -1    1   -1
    B2  |   1   -1   -1    1
    A2  |   1    1   -1   -1

   * Direct product table

        | A1   B1   B2   A2 
   -----+--------------------
    A1  | A1   B1   B2   A2 
    B1  | B1   A1   A2   B2 
    B2  | B2   A2   A1   B1 
    A2  | A2   B2   B1   A1 


                                 Isotopic Masses
                                 ---------------

                           Na_a       22.989770
                           Cl_a       34.968853

                       Total mass:    57.958623 amu
                       Natural abundance:  75.770 %

 Center-of-mass coordinates (a.u.):    0.000000    0.000000    0.000000
 Center-of-mass coordinates (Angs):    0.000000    0.000000    0.000000


  Atoms and basis sets
  --------------------

  Number of atom types :    2
  Total number of atoms:    2

  Basis set used is "aug-cc-pVDZ" from the basis set library.

  label    atoms   charge   prim   cont     basis
  ----------------------------------------------------------------------
  Na          1   11.0000    50    27      [13s9p2d|5s4p2d]                                   
  Cl          1   17.0000    50    27      [13s9p2d|5s4p2d]                                   
  ----------------------------------------------------------------------
  total:      2   28.0000   100    54
  ----------------------------------------------------------------------
  Spherical harmonic basis used.

  Threshold for neglecting AO integrals:  1.00D-12


  Cartesian Coordinates (a.u.)
  ----------------------------

  Total number of coordinates:    6
  Na_a    :     1  x   0.0000000000    2  y   0.0000000000    3  z  -2.6916882392
  Cl_a    :     4  x   0.0000000000    5  y   0.0000000000    6  z   1.7696117608


  Symmetry Coordinates
  --------------------

  Number of coordinates in each symmetry:     2    2    2    0

  Symmetry  A1  ( 1)

    1   Na_a  z    3
    2   Cl_a  z    6

  Symmetry  B1  ( 2)

    3   Na_a  x    1
    4   Cl_a  x    4

  Symmetry  B2  ( 3)

    5   Na_a  y    2
    6   Cl_a  y    5


   Interatomic separations (in Angstrom):
   --------------------------------------

            Na_a        Cl_a  
            ------      ------
 Na_a  :    0.000000
 Cl_a  :    2.360818    0.000000


  Max    interatomic separation is    2.3608 Angstrom (    4.4613 Bohr)
  between atoms    2 and    1, "Cl_a  " and "Na_a  ".

  Min YX interatomic separation is    2.3608 Angstrom (    4.4613 Bohr)


  Bond distances (Angstrom):
  --------------------------

                  atom 1     atom 2       distance
                  ------     ------       --------
  bond distance:  Cl_a       Na_a         2.360818




 Principal moments of inertia (u*A**2) and principal axes
 --------------------------------------------------------

   IA       0.000000          0.000000    0.000000    1.000000
   IB      77.307758          0.000000    1.000000    0.000000
   IC      77.307758          1.000000    0.000000    0.000000


 Rotational constants
 --------------------

@    The molecule is linear.

               B =         6537.24 MHz     (    0.218059 cm-1)


@  Nuclear repulsion energy :   41.916033443167 Hartree


  Symmetry Orbitals
  -----------------

  Number of orbitals in each symmetry:          26   12   12    4


  Symmetry  A1 ( 1)

    1     Na_a     1s         1
    2     Na_a     1s         2
    3     Na_a     1s         3
    4     Na_a     1s         4
    5     Na_a     1s         5
    6     Na_a     2pz        8
    7     Na_a     2pz       11
    8     Na_a     2pz       14
    9     Na_a     2pz       17
   10     Na_a     3d0       20
   11     Na_a     3d2+      22
   12     Na_a     3d0       25
   13     Na_a     3d2+      27
   14     Cl_a     1s        28
   15     Cl_a     1s        29
   16     Cl_a     1s        30
   17     Cl_a     1s        31
   18     Cl_a     1s        32
   19     Cl_a     2pz       35
   20     Cl_a     2pz       38
   21     Cl_a     2pz       41
   22     Cl_a     2pz       44
   23     Cl_a     3d0       47
   24     Cl_a     3d2+      49
   25     Cl_a     3d0       52
   26     Cl_a     3d2+      54


  Symmetry  B1 ( 2)

   27     Na_a     2px        6
   28     Na_a     2px        9
   29     Na_a     2px       12
   30     Na_a     2px       15
   31     Na_a     3d1+      21
   32     Na_a     3d1+      26
   33     Cl_a     2px       33
   34     Cl_a     2px       36
   35     Cl_a     2px       39
   36     Cl_a     2px       42
   37     Cl_a     3d1+      48
   38     Cl_a     3d1+      53


  Symmetry  B2 ( 3)

   39     Na_a     2py        7
   40     Na_a     2py       10
   41     Na_a     2py       13
   42     Na_a     2py       16
   43     Na_a     3d1-      19
   44     Na_a     3d1-      24
   45     Cl_a     2py       34
   46     Cl_a     2py       37
   47     Cl_a     2py       40
   48     Cl_a     2py       43
   49     Cl_a     3d1-      46
   50     Cl_a     3d1-      51


  Symmetry  A2 ( 4)

   51     Na_a     3d2-      18
   52     Na_a     3d2-      23
   53     Cl_a     3d2-      45
   54     Cl_a     3d2-      50

  Symmetries of electric field:  B1 (2)  B2 (3)  A1 (1)

  Symmetries of magnetic field:  B2 (3)  B1 (2)  A2 (4)


                     .---------------------------------------.
                     | Starting in Integral Section (HERMIT) |
                     `---------------------------------------'



 ***************************************************************************************
 ****************** Output from **INTEGRALS input processing (HERMIT) ******************
 ***************************************************************************************


 - Using defaults, no **INTEGRALS input found

 Default print level:        1

 Calculation of one-electron Hamiltonian integrals.

 Center of mass  (bohr):      0.000000000000      0.000000000000      0.000000000000
 Operator center (bohr):      0.000000000000      0.000000000000      0.000000000000
 Gauge origin    (bohr):      0.000000000000      0.000000000000      0.000000000000
 Dipole origin   (bohr):      0.000000000000      0.000000000000      0.000000000000


     ************************************************************************
     ************************** Output from HERINT **************************
     ************************************************************************



                      Nuclear contribution to dipole moments
                      --------------------------------------

                 au               Debye          C m (/(10**-30)

      z      0.47482930         1.20689563         4.02577048


  Total CPU  time used in HERMIT:   0.11 seconds
  Total wall time used in HERMIT:   0.11 seconds


                        .----------------------------------.
                        | End of Integral Section (HERMIT) |
                        `----------------------------------'



                   .--------------------------------------------.
                   | Starting in Wave Function Section (SIRIUS) |
                   `--------------------------------------------'


 *** Output from Huckel module :

     Using EWMO model:          T
     Using EHT  model:          F
     Number of Huckel orbitals each symmetry:   12    5    5    1

 EWMO - Energy Weighted Maximum Overlap - is a Huckel type method,
        which normally is better than Extended Huckel Theory.
 Reference: Linderberg and Ohrn, Propagators in Quantum Chemistry (Wiley, 1973)

 Huckel EWMO eigenvalues for symmetry :  1
         -104.883948     -40.478552     -10.608924      -8.072225      -2.801071
           -1.524984      -1.108334      -0.511066      -0.164216      -0.079718
           -0.055556      -0.055019

 Huckel EWMO eigenvalues for symmetry :  2
           -8.072210      -1.518367      -0.513805      -0.107573      -0.054300

 Huckel EWMO eigenvalues for symmetry :  3
           -8.072210      -1.518367      -0.513805      -0.107573      -0.054300

 Huckel EWMO eigenvalues for symmetry :  4
           -0.055556

 **********************************************************************
 *SIRIUS* a direct, restricted step, second order MCSCF program       *
 **********************************************************************

 
     Date and time (Linux)  : Wed Jan 11 14:14:17 2023
     Host name              : cn042                                   

 Title lines from ".mol" input file:
     blah                                                                    
     blah                                                                    

 Print level on unit LUPRI =   2 is   0
 Print level on unit LUW4  =   2 is   5

@    Restricted, closed shell Hartree-Fock calculation.

@    Time-dependent Hartree-Fock calculation (random phase approximation).
 Fock matrices are calculated directly and in parallel without use of integrals on disk.

 Initial molecular orbitals are obtained according to
 ".MOSTART EWMO  " input option

     Wave function specification
     ============================
@    Wave function type        --- HF ---
@    Number of closed shell electrons          28
@    Number of electrons in active shells       0
@    Total charge of the molecule               0

@    Spin multiplicity and 2 M_S                1         0
@    Total number of symmetries                 4 (point group: C2v)
@    Reference state symmetry                   1 (irrep name : A1 )

     Orbital specifications
     ======================
@    Abelian symmetry species          All |    1    2    3    4
@                                          |  A1   B1   B2   A2 
                                       --- |  ---  ---  ---  ---
@    Total number of orbitals           54 |   26   12   12    4
@    Number of basis functions          54 |   26   12   12    4

      ** Automatic occupation of RHF orbitals **

      -- Initial occupation of symmetries is determined from extended Huckel guess.           
      -- Initial occupation of symmetries is :
@    Occupied SCF orbitals              14 |    8    3    3    0

     Maximum number of Fock   iterations      0
     Maximum number of DIIS   iterations     60
     Maximum number of QC-SCF iterations     60
     Threshold for SCF convergence     1.00D-05


 ***********************************************
 ***** DIIS acceleration of SCF iterations *****
 ***********************************************

 C1-DIIS algorithm; max error vectors =    8

 Automatic occupation of symmetries with  28 electrons.

 Iter     Total energy    Error norm  Delta(E)    SCF occupation
 -----------------------------------------------------------------------------
   1  Screening settings (-IFTHRS, JTDIIS, DIFDEN, times)   -6    1    T  4.75D-02  4.80D-02
@  1  -621.400006308       6.73D-01  -6.21D+02     8   3   3   0
      Virial theorem: -V/T =      1.997529
@    MULPOP   Na_a    0.82; Cl_a   -0.82; 
   1  Level shift: doubly occupied orbital energies shifted by -2.00D-01
 -----------------------------------------------------------------------------
   2  Screening settings (-IFTHRS, JTDIIS, DIFDEN, times)  -10    2    F  2.33D-02  2.30D-02
@  2  -621.436374980       1.46D-01  -3.64D-02     8   3   3   0
      Virial theorem: -V/T =      2.000479
@    MULPOP   Na_a    0.83; Cl_a   -0.83; 
   2  Level shift: doubly occupied orbital energies shifted by -5.00D-02
 -----------------------------------------------------------------------------
   3  Screening settings (-IFTHRS, JTDIIS, DIFDEN, times)  -10    3    T  2.26D-02  2.30D-02
@  3  -621.438204907       2.86D-02  -1.83D-03     8   3   3   0
      Virial theorem: -V/T =      1.999950
@    MULPOP   Na_a    0.83; Cl_a   -0.83; 
   3  Level shift: doubly occupied orbital energies shifted by -1.25D-02
 -----------------------------------------------------------------------------
   4  Screening settings (-IFTHRS, JTDIIS, DIFDEN, times)  -10    4    T  2.24D-02  2.30D-02
@  4  -621.438392762       6.19D-03  -1.88D-04     8   3   3   0
      Virial theorem: -V/T =      1.999961
@    MULPOP   Na_a    0.84; Cl_a   -0.84; 
 -----------------------------------------------------------------------------
   5  Screening settings (-IFTHRS, JTDIIS, DIFDEN, times)  -10    5    T  2.29D-02  2.30D-02
@  5  -621.438403829       1.86D-03  -1.11D-05     8   3   3   0
      Virial theorem: -V/T =      1.999960
@    MULPOP   Na_a    0.84; Cl_a   -0.84; 
 -----------------------------------------------------------------------------
   6  Screening settings (-IFTHRS, JTDIIS, DIFDEN, times)  -10    6    T  2.24D-02  2.30D-02
@  6  -621.438404823       4.32D-04  -9.95D-07     8   3   3   0
      Virial theorem: -V/T =      1.999964
@    MULPOP   Na_a    0.84; Cl_a   -0.84; 
 -----------------------------------------------------------------------------
   7  Screening settings (-IFTHRS, JTDIIS, DIFDEN, times)  -10    7    T  2.28D-02  2.30D-02
@  7  -621.438404880       6.59D-05  -5.69D-08     8   3   3   0
      Virial theorem: -V/T =      1.999964
@    MULPOP   Na_a    0.84; Cl_a   -0.84; 
 -----------------------------------------------------------------------------
   8  Screening settings (-IFTHRS, JTDIIS, DIFDEN, times)  -10    8    T  2.26D-02  2.30D-02
@  8  -621.438404882       1.15D-05  -1.25D-09     8   3   3   0
      Virial theorem: -V/T =      1.999964
@    MULPOP   Na_a    0.84; Cl_a   -0.84; 
 -----------------------------------------------------------------------------
   9  Screening settings (-IFTHRS, JTDIIS, DIFDEN, times)  -10    9    T  2.27D-02  2.30D-02
@  9  -621.438404882       3.25D-06  -4.80D-11     8   3   3   0

@ *** DIIS converged in   9 iterations !
@     Converged SCF energy, gradient:   -621.438404881729    3.25D-06
    - total time used in SIRFCK :              0.00 seconds


 *** SCF orbital energy analysis ***

 Only the 20 lowest virtual orbital energies printed in each symmetry.

 Number of electrons :   28
 Orbital occupations :    8    3    3    0

 Sym       Hartree-Fock orbital energies

1 A1   -104.70466725   -40.50127218   -10.42980671    -7.89624048    -2.82447706
         -1.54673146    -0.94257480    -0.37059510    -0.02059304     0.01386159
          0.02682809     0.06782096     0.12274044     0.12610204     0.13556570
          0.22530958     0.26185698     0.36906410     0.40493818     0.53763155
          0.57654674     0.69703841     1.22618993     1.40695059     1.51492511
          1.61336246

2 B1     -7.89540472    -1.54661398    -0.35260042     0.01139402     0.04168788
          0.13865312     0.17696413     0.21815680     0.39532577     0.66314723
          1.06333014     1.58389739

3 B2     -7.89540472    -1.54661398    -0.35260042     0.01139402     0.04168788
          0.13865312     0.17696413     0.21815680     0.39532577     0.66314723
          1.06333014     1.58389739

4 A2      0.12274044     0.36906410     0.57654674     1.51492511

    E(LUMO) :    -0.02059304 au (symmetry 1)
  - E(HOMO) :    -0.35260042 au (symmetry 3)
  ------------------------------------------
    gap     :     0.33200738 au

 --- Writing SIRIFC interface file

 CPU and wall time for SCF :       0.240       0.243


                       .-----------------------------------.
                       | --- Final results from SIRIUS --- |
                       `-----------------------------------'


@    Spin multiplicity:           1
@    Spatial symmetry:            1 ( irrep  A1  in C2v )
@    Total charge of molecule:    0

@    Final HF energy:            -621.438404881729                 
@    Nuclear repulsion:            41.916033443167
@    Electronic energy:          -663.354438324896

@    Final gradient norm:           0.000003253277

 
     Date and time (Linux)  : Wed Jan 11 14:14:17 2023
     Host name              : cn042                                   

File label for MO orbitals:  11Jan23   FOCKDIIS

 (Only coefficients > 0.0100 are printed.)

 Molecular orbitals for symmetry species 1  (A1 )
 ------------------------------------------------

    Orbital         1        2        3        4        5        6        7
   1 Na_a:1s    -0.0000  -1.0000   0.0000  -0.0001  -0.0002  -0.0005   0.0021
   2 Na_a:1s    -0.0000   0.0002   0.0000  -0.0009  -1.0027  -0.0189   0.0300
   6 Na_a:2pz    0.0000   0.0002  -0.0003  -0.0006   0.0153  -1.0013   0.0573
  14 Cl_a:1s     1.0000   0.0000  -0.0005  -0.0000   0.0001   0.0001   0.0029
  15 Cl_a:1s     0.0002   0.0000  -1.0034  -0.0014   0.0004   0.0010   0.0216
  16 Cl_a:1s     0.0004   0.0000  -0.0080   0.0005  -0.0009  -0.0202  -0.9279
  17 Cl_a:1s    -0.0007  -0.0001   0.0144  -0.0004  -0.0008  -0.0044  -0.0439
  18 Cl_a:1s     0.0005  -0.0006  -0.0094   0.0032   0.0051   0.0222  -0.0469
  19 Cl_a:2pz   -0.0000  -0.0000   0.0016  -0.9999  -0.0001   0.0001  -0.0025
  20 Cl_a:2pz   -0.0000  -0.0000   0.0006   0.0019   0.0022   0.0177   0.0165
  21 Cl_a:2pz    0.0001   0.0002  -0.0014  -0.0015  -0.0014  -0.0089   0.0249
  25 Cl_a:3d0    0.0000   0.0000   0.0000   0.0002  -0.0000   0.0044  -0.0115

    Orbital         8        9       10       11       12       13       14
   1 Na_a:1s    -0.0051   0.0030   0.0077  -0.0021  -0.0002  -0.0000   0.0218
   2 Na_a:1s    -0.0589   0.0297   0.0714  -0.0205   0.0003  -0.0000   0.2129
   3 Na_a:1s     0.1144  -0.2218  -0.0550  -0.1202   0.2266  -0.0000   0.9699
   4 Na_a:1s    -0.0303  -0.4078  -1.1831  -1.5372   0.8190  -0.0000  -2.4590
   5 Na_a:1s     0.0066  -0.4117   0.9757   1.4549  -0.2599   0.0000   0.9381
   6 Na_a:2pz   -0.0774  -0.0340  -0.0387  -0.0671  -0.0249  -0.0000  -0.2267
   7 Na_a:2pz    0.0411   0.0968  -0.0060  -0.1981  -0.1696  -0.0000  -1.3683
   8 Na_a:2pz   -0.0096   0.3136   0.4583  -0.2788   1.5321  -0.0000   0.9291
   9 Na_a:2pz    0.0017   0.1563  -0.9724   0.7532  -0.7032   0.0000  -0.2519
  10 Na_a:3d0    0.0116  -0.0080  -0.0425  -0.0074   0.0483  -0.0000  -0.2531
  11 Na_a:3d2+  -0.0000  -0.0000  -0.0000   0.0000   0.0000  -0.2804   0.0000
  12 Na_a:3d0   -0.0033  -0.0519   0.0030  -0.2496  -0.3010  -0.0000   0.5658
  13 Na_a:3d2+   0.0000  -0.0000   0.0000  -0.0000  -0.0000   1.2110  -0.0000
  15 Cl_a:1s    -0.0160   0.0019   0.0025   0.0114  -0.0427   0.0000   0.0005
  16 Cl_a:1s    -0.0980   0.0402   0.0367   0.0034  -0.1868   0.0000  -0.0017
  17 Cl_a:1s     0.0251  -0.0042  -0.0068  -0.0990   0.2147  -0.0000  -0.0247
  18 Cl_a:1s    -0.0094   0.1145   0.1903   0.7284  -0.6998   0.0000   0.7418
  20 Cl_a:2pz   -0.8913  -0.0828  -0.0470  -0.0240   0.0828   0.0000   0.0656
  21 Cl_a:2pz   -0.0626  -0.0219  -0.0456  -0.0212   0.0423  -0.0000  -0.1586
  22 Cl_a:2pz   -0.0425  -0.1045  -0.1041  -0.3749   0.0472  -0.0000  -0.7309
  24 Cl_a:3d2+   0.0000  -0.0000  -0.0000  -0.0000   0.0000   0.0200  -0.0000
  25 Cl_a:3d0    0.0353   0.0136   0.0157   0.0171  -0.0085   0.0000   0.0800
  26 Cl_a:3d2+   0.0000   0.0000   0.0000   0.0000   0.0000  -0.0189   0.0000

    Orbital        15       16       17       18
   1 Na_a:1s    -0.0079   0.0683  -0.0311  -0.0000
   2 Na_a:1s    -0.0714   0.6365  -0.2763  -0.0000
   3 Na_a:1s     0.0495   1.6841  -0.3605  -0.0000
   4 Na_a:1s    -2.9817  -1.5218  -0.0489  -0.0000
   5 Na_a:1s     0.6495   0.1207   0.1471   0.0000
   6 Na_a:2pz   -0.2237   0.0344   0.0488  -0.0000
   7 Na_a:2pz   -1.0612   0.3621   0.6300  -0.0000
   8 Na_a:2pz   -1.5026  -1.0573  -0.1034  -0.0000
   9 Na_a:2pz    0.4245   0.0871   0.1718   0.0000
  10 Na_a:3d0    0.1099  -0.2857  -0.8486  -0.0000
  11 Na_a:3d2+  -0.0000  -0.0000  -0.0000   1.6147
  12 Na_a:3d0   -1.6272  -0.4520   1.3318  -0.0000
  13 Na_a:3d2+  -0.0000  -0.0000  -0.0000  -1.1217
  15 Cl_a:1s     0.0563   0.0502   0.0547   0.0000
  16 Cl_a:1s     0.1730  -0.0670  -0.0726   0.0000
  17 Cl_a:1s    -0.3604  -0.4351  -0.4879  -0.0000
  18 Cl_a:1s     3.4678   1.2231   0.2617   0.0000
  19 Cl_a:2pz    0.0045   0.0136  -0.0049   0.0000
  20 Cl_a:2pz    0.1529  -0.0204   0.2121  -0.0000
  21 Cl_a:2pz   -0.0694  -0.3957   0.1623  -0.0000
  22 Cl_a:2pz   -0.8129   1.6022  -1.1587  -0.0000
  23 Cl_a:3d0    0.0010   0.0283  -0.0125  -0.0000
  24 Cl_a:3d2+  -0.0000  -0.0000  -0.0000   0.0214
  25 Cl_a:3d0    0.0210   0.0032   0.0182   0.0000
  26 Cl_a:3d2+   0.0000   0.0000   0.0000   0.0392

 Molecular orbitals for symmetry species 2  (B1 )
 ------------------------------------------------

    Orbital         1        2        3        4        5        6        7
   1 Na_a:2px    0.0000   1.0000  -0.0190  -0.0005   0.0442   0.0611   0.1361
   2 Na_a:2px    0.0001  -0.0006   0.0418   0.0855  -0.0238   0.6063   1.2509
   3 Na_a:2px   -0.0003  -0.0015  -0.0109  -0.0364  -1.3752  -1.4548  -0.7505
   4 Na_a:2px    0.0001   0.0006   0.0027   1.0124   0.9025   0.4509   0.2803
   5 Na_a:3d1+   0.0003  -0.0051   0.0259   0.0215  -0.0136   0.2334  -0.4026
   6 Na_a:3d1+  -0.0003   0.0039  -0.0046  -0.0997   0.2105  -1.4167   0.9975
   7 Cl_a:2px   -0.9999  -0.0001  -0.0051  -0.0008   0.0021   0.0005   0.0050
   8 Cl_a:2px    0.0020   0.0022   0.9070  -0.0446   0.0817   0.0684  -0.1749
   9 Cl_a:2px   -0.0008   0.0008   0.0447   0.0108  -0.0329   0.0066  -0.1899
  10 Cl_a:2px    0.0007  -0.0023   0.0752  -0.0595   0.1790   0.8717  -0.1759
  11 Cl_a:3d1+   0.0001  -0.0010  -0.0075  -0.0022   0.0046   0.0004  -0.0225
  12 Cl_a:3d1+   0.0001  -0.0005  -0.0227   0.0057   0.0026   0.0013  -0.0174

    Orbital         8        9       10       11       12
   1 Na_a:2px   -0.1164  -0.0044  -0.1543  -0.0456   0.1119
   2 Na_a:2px   -0.6742  -0.0888  -0.6849  -0.1884   0.4085
   3 Na_a:2px   -0.7293   0.5297   0.1215   0.4323  -0.0318
   4 Na_a:2px    0.0534  -0.1013  -0.0608  -0.0724   0.0239
   5 Na_a:3d1+  -0.0223  -1.7866  -0.8840  -0.5459   0.3571
   6 Na_a:3d1+  -0.9196   1.5248   0.2167   0.4397   0.0186
   7 Cl_a:2px    0.0131  -0.0056   0.0056  -0.2313   0.0154
   8 Cl_a:2px   -0.1373   0.1804   0.1095  -2.0013   0.1060
   9 Cl_a:2px   -0.4057   0.4023   0.0714   2.7636  -0.2295
  10 Cl_a:2px    2.2825  -0.9044   0.4207  -0.9329  -0.2760
  11 Cl_a:3d1+   0.0455   0.0833  -0.1145  -0.0278  -1.2896
  12 Cl_a:3d1+  -0.0462  -0.0462  -1.1659  -0.1603   1.1148

 Molecular orbitals for symmetry species 3  (B2 )
 ------------------------------------------------

    Orbital         1        2        3        4        5        6        7
   1 Na_a:2py    0.0000   1.0000  -0.0190  -0.0005   0.0442   0.0611   0.1361
   2 Na_a:2py    0.0001  -0.0006   0.0418   0.0855  -0.0238   0.6063   1.2509
   3 Na_a:2py   -0.0003  -0.0015  -0.0109  -0.0364  -1.3752  -1.4548  -0.7505
   4 Na_a:2py    0.0001   0.0006   0.0027   1.0124   0.9025   0.4509   0.2803
   5 Na_a:3d1-   0.0003  -0.0051   0.0259   0.0215  -0.0136   0.2334  -0.4026
   6 Na_a:3d1-  -0.0003   0.0039  -0.0046  -0.0997   0.2105  -1.4167   0.9975
   7 Cl_a:2py   -0.9999  -0.0001  -0.0051  -0.0008   0.0021   0.0005   0.0050
   8 Cl_a:2py    0.0020   0.0022   0.9070  -0.0446   0.0817   0.0684  -0.1749
   9 Cl_a:2py   -0.0008   0.0008   0.0447   0.0108  -0.0329   0.0066  -0.1899
  10 Cl_a:2py    0.0007  -0.0023   0.0752  -0.0595   0.1790   0.8717  -0.1759
  11 Cl_a:3d1-   0.0001  -0.0010  -0.0075  -0.0022   0.0046   0.0004  -0.0225
  12 Cl_a:3d1-   0.0001  -0.0005  -0.0227   0.0057   0.0026   0.0013  -0.0174

    Orbital         8        9       10       11       12
   1 Na_a:2py   -0.1164  -0.0044  -0.1543  -0.0456   0.1119
   2 Na_a:2py   -0.6742  -0.0888  -0.6849  -0.1884   0.4085
   3 Na_a:2py   -0.7293   0.5297   0.1215   0.4323  -0.0318
   4 Na_a:2py    0.0534  -0.1013  -0.0608  -0.0724   0.0239
   5 Na_a:3d1-  -0.0223  -1.7866  -0.8840  -0.5459   0.3571
   6 Na_a:3d1-  -0.9196   1.5248   0.2167   0.4397   0.0186
   7 Cl_a:2py    0.0131  -0.0056   0.0056  -0.2313   0.0154
   8 Cl_a:2py   -0.1373   0.1804   0.1095  -2.0013   0.1060
   9 Cl_a:2py   -0.4057   0.4023   0.0714   2.7636  -0.2295
  10 Cl_a:2py    2.2825  -0.9044   0.4207  -0.9329  -0.2760
  11 Cl_a:3d1-   0.0455   0.0833  -0.1145  -0.0278  -1.2896
  12 Cl_a:3d1-  -0.0462  -0.0462  -1.1659  -0.1603   1.1148

 Molecular orbitals for symmetry species 4  (A2 )
 ------------------------------------------------

    Orbital         1        2        3        4
   1 Na_a:3d2-  -0.2804   1.6147  -0.2446  -0.0548
   2 Na_a:3d2-   1.2110  -1.1217  -0.0113  -0.0595
   3 Cl_a:3d2-   0.0200   0.0214   0.0985  -1.2458
   4 Cl_a:3d2-  -0.0189   0.0392   0.9618   0.8462

  Total CPU  time used in SIRIUS :   0.25 seconds
  Total wall time used in SIRIUS :   0.26 seconds

 
     Date and time (Linux)  : Wed Jan 11 14:14:17 2023
     Host name              : cn042                                   


                     .---------------------------------------.
                     | End of Wave Function Section (SIRIUS) |
                     `---------------------------------------'



                 .------------------------------------------------.
                 | Starting in Dynamic Property Section (RESPONS) |
                 `------------------------------------------------'


 ----------------------------------------------------------------------------------------
  RESPONSE  -  an MCSCF, MC-srDFT, DFT, SOPPA and SOPPA-srDFT response property program
 ----------------------------------------------------------------------------------------


 -------- OUTPUT FROM RESPONSE INPUT PROCESSING --------




 Linear Response calculation
 ---------------------------

 Print level                                    : IPRLR  =   2
 Maximum number of iterations                   : MAXITL =  60
 Threshold for relative convergence             : THCLR  = 1.000D-03
 Maximum iterations in optimal orbital algorithm: MAXITO =   5

  9 B-frequencies  0.000000D+00  1.227675D-02  2.455350D-02  3.683025D-02  4.910700D-02
  6.138375D-02  7.366050D-02  8.593725D-02  9.821400D-02

    1 second order properties calculated with symmetry no.    1 and labels:

          ZDIPLEN 

    1 second order properties calculated with symmetry no.    2 and labels:

          XDIPLEN 

    1 second order properties calculated with symmetry no.    3 and labels:

          YDIPLEN 


   SCF energy         :     -621.438404881729298
 -- inactive part     :     -663.354438324896137
 -- nuclear repulsion :       41.916033443166796


                     ***************************************
                     *** RHF response calculation (TDHF) ***
                     ***************************************

 ----------------------------------------------------------------
 ----- Linear response calculation
 ----- Symmetry of excitation/property operator(s)    1  ( A1 )
 ----------------------------------------------------------------

 Number of excitations of this symmetry            0
 Number of response properties of this symmetry    1
 Number of C6/C8 properties of this symmetry       0


 Perturbation symmetry.     KSYMOP:           1
 Perturbation spin symmetry.TRPLET:           F
 Orbital variables.         KZWOPT:         198
 Configuration variables.   KZCONF:           0
 Total number of variables. KZVAR :         198


 RSPLR -- linear response calculation for symmetry 1  ( A1 )
 RSPLR -- operator label : ZDIPLEN 
 RSPLR -- operator spin  :   0
 RSPLR -- frequencies    :     0.000000  0.012277  0.024553  0.036830  0.049107
                               0.061384  0.073660  0.085937  0.098214



 ---  SOLVING SETS OF LINEAR EQUATIONS FOR LINEAR RESPONSE PROPERTIES ---

 Operator symmetry = 1  ( A1 ); triplet =   F


 ** RSPCTL MICROITERATION NUMBER    1

       No.  Residual tot.,    conf., and orb.    Bnorm      Frequency 
      ----------------------------------------------------------------
         1    1.82433D+00  0.00D+00  1.82D+00  5.37D+00    0.00000D+00
         2    1.82624D+00  0.00D+00  1.83D+00  5.39D+00    1.22767D-02
         3    1.83203D+00  0.00D+00  1.83D+00  5.43D+00    2.45535D-02
         4    1.84186D+00  0.00D+00  1.84D+00  5.52D+00    3.68302D-02
         5    1.85604D+00  0.00D+00  1.86D+00  5.63D+00    4.91070D-02
         6    1.87503D+00  0.00D+00  1.88D+00  5.79D+00    6.13838D-02
         7    1.89952D+00  0.00D+00  1.90D+00  5.99D+00    7.36605D-02
         8    1.93045D+00  0.00D+00  1.93D+00  6.25D+00    8.59372D-02
         9    1.96920D+00  0.00D+00  1.97D+00  6.58D+00    9.82140D-02

 ** RSPCTL MICROITERATION NUMBER    2

       No.  Residual tot.,    conf., and orb.    Bnorm      Frequency 
      ----------------------------------------------------------------
         1    2.60743D-01  0.00D+00  2.61D-01  5.68D+00    0.00000D+00
         2    2.61674D-01  0.00D+00  2.62D-01  5.70D+00    1.22767D-02
         3    2.64503D-01  0.00D+00  2.65D-01  5.75D+00    2.45535D-02
         4    2.69342D-01  0.00D+00  2.69D-01  5.85D+00    3.68302D-02
         5    2.76393D-01  0.00D+00  2.76D-01  5.98D+00    4.91070D-02
         6    2.85964D-01  0.00D+00  2.86D-01  6.16D+00    6.13838D-02
         7    2.98509D-01  0.00D+00  2.99D-01  6.39D+00    7.36605D-02
         8    3.14688D-01  0.00D+00  3.15D-01  6.69D+00    8.59372D-02
         9    3.35459D-01  0.00D+00  3.35D-01  7.07D+00    9.82140D-02

 ** RSPCTL MICROITERATION NUMBER    3

       No.  Residual tot.,    conf., and orb.    Bnorm      Frequency 
      ----------------------------------------------------------------
         1    2.74392D-02  0.00D+00  2.74D-02  5.70D+00    0.00000D+00
         2    2.75445D-02  0.00D+00  2.75D-02  5.71D+00    1.22767D-02
         3    2.78655D-02  0.00D+00  2.79D-02  5.77D+00    2.45535D-02
         4    2.84177D-02  0.00D+00  2.84D-02  5.86D+00    3.68302D-02
         5    2.92289D-02  0.00D+00  2.92D-02  5.99D+00    4.91070D-02
         6    3.03429D-02  0.00D+00  3.03D-02  6.18D+00    6.13838D-02
         7    3.18250D-02  0.00D+00  3.18D-02  6.41D+00    7.36605D-02
         8    3.37717D-02  0.00D+00  3.38D-02  6.71D+00    8.59372D-02
         9    3.63273D-02  0.00D+00  3.63D-02  7.10D+00    9.82140D-02

 ** RSPCTL MICROITERATION NUMBER    4

       No.  Residual tot.,    conf., and orb.    Bnorm      Frequency 
      ----------------------------------------------------------------
         1    3.97494D-03  0.00D+00  3.97D-03  5.70D+00    0.00000D+00
         2    3.98992D-03  0.00D+00  3.99D-03  5.71D+00    1.22767D-02
         3    4.03547D-03  0.00D+00  4.04D-03  5.77D+00    2.45535D-02
         4    4.11357D-03  0.00D+00  4.11D-03  5.86D+00    3.68302D-02
         5    4.22771D-03  0.00D+00  4.23D-03  6.00D+00    4.91070D-02
         6    4.38340D-03  0.00D+00  4.38D-03  6.18D+00    6.13838D-02
         7    4.58882D-03  0.00D+00  4.59D-03  6.41D+00    7.36605D-02
         8    4.85605D-03  0.00D+00  4.86D-03  6.71D+00    8.59372D-02
         9    5.20310D-03  0.00D+00  5.20D-03  7.10D+00    9.82140D-02

 *** THE REQUESTED    9 SOLUTION VECTORS CONVERGED

 Convergence of RSP solution vectors, threshold = 1.00D-03
 ---------------------------------------------------------------
 (dimension of paired reduced space:   72)
 RSP solution vector no.    1; norm of residual   6.98D-04
 RSP solution vector no.    2; norm of residual   6.98D-04
 RSP solution vector no.    3; norm of residual   7.00D-04
 RSP solution vector no.    4; norm of residual   7.02D-04
 RSP solution vector no.    5; norm of residual   7.05D-04
 RSP solution vector no.    6; norm of residual   7.10D-04
 RSP solution vector no.    7; norm of residual   7.16D-04
 RSP solution vector no.    8; norm of residual   7.23D-04
 RSP solution vector no.    9; norm of residual   7.33D-04

 *** RSPCTL MICROITERATIONS CONVERGED


           Final output of second order properties from linear response
           ------------------------------------------------------------


@ Spin symmetry of operators: singlet

 Note that minus the linear response function: - << A; B >>(omega) is printed.
 The results are of quadratic accuracy using Sellers formula.

@ FREQUENCY INDEPENDENT SECOND ORDER PROPERTIES

@ -<< ZDIPLEN  ; ZDIPLEN  >> =  2.687838111283E+01

@ FREQUENCY DEPENDENT SECOND ORDER PROPERTIES WITH FREQUENCY :

@    a.u.:  1.2276750D-02
@    cm-1:  2.6944352D+03
@    eV  :  3.3406736D-01
@  kJ/mol:  3.2232602D+01
@    nm  :  3.7113530D+03

@ -<< ZDIPLEN  ; ZDIPLEN  >> =  2.691529059817E+01

@ FREQUENCY DEPENDENT SECOND ORDER PROPERTIES WITH FREQUENCY :

@    a.u.:  2.4553500D-02
@    cm-1:  5.3888703D+03
@    eV  :  6.6813472D-01
@  kJ/mol:  6.4465204D+01
@    nm  :  1.8556765D+03

@ -<< ZDIPLEN  ; ZDIPLEN  >> =  2.702704828676E+01

@ FREQUENCY DEPENDENT SECOND ORDER PROPERTIES WITH FREQUENCY :

@    a.u.:  3.6830250D-02
@    cm-1:  8.0833055D+03
@    eV  :  1.0022021D+00
@  kJ/mol:  9.6697806D+01
@    nm  :  1.2371177D+03

@ -<< ZDIPLEN  ; ZDIPLEN  >> =  2.721683048077E+01

@ FREQUENCY DEPENDENT SECOND ORDER PROPERTIES WITH FREQUENCY :

@    a.u.:  4.9107000D-02
@    cm-1:  1.0777741D+04
@    eV  :  1.3362694D+00
@  kJ/mol:  1.2893041D+02
@    nm  :  9.2783825D+02

@ -<< ZDIPLEN  ; ZDIPLEN  >> =  2.749024211960E+01

@ FREQUENCY DEPENDENT SECOND ORDER PROPERTIES WITH FREQUENCY :

@    a.u.:  6.1383750D-02
@    cm-1:  1.3472176D+04
@    eV  :  1.6703368D+00
@  kJ/mol:  1.6116301D+02
@    nm  :  7.4227060D+02

@ -<< ZDIPLEN  ; ZDIPLEN  >> =  2.785584338406E+01

@ FREQUENCY DEPENDENT SECOND ORDER PROPERTIES WITH FREQUENCY :

@    a.u.:  7.3660500D-02
@    cm-1:  1.6166611D+04
@    eV  :  2.0044042D+00
@  kJ/mol:  1.9339561D+02
@    nm  :  6.1855883D+02

@ -<< ZDIPLEN  ; ZDIPLEN  >> =  2.832602644772E+01

@ FREQUENCY DEPENDENT SECOND ORDER PROPERTIES WITH FREQUENCY :

@    a.u.:  8.5937250D-02
@    cm-1:  1.8861046D+04
@    eV  :  2.3384715D+00
@  kJ/mol:  2.2562822D+02
@    nm  :  5.3019329D+02

@ -<< ZDIPLEN  ; ZDIPLEN  >> =  2.891843758064E+01

@ FREQUENCY DEPENDENT SECOND ORDER PROPERTIES WITH FREQUENCY :

@    a.u.:  9.8214000D-02
@    cm-1:  2.1555481D+04
@    eV  :  2.6725389D+00
@  kJ/mol:  2.5786082D+02
@    nm  :  4.6391913D+02

@ -<< ZDIPLEN  ; ZDIPLEN  >> =  2.965830819635E+01


 Time used in linear response calculation is      0.15 CPU seconds for symmetry 1
 ----------------------------------------------------------------
 ----- Linear response calculation
 ----- Symmetry of excitation/property operator(s)    2  ( B1 )
 ----------------------------------------------------------------

 Number of excitations of this symmetry            0
 Number of response properties of this symmetry    1
 Number of C6/C8 properties of this symmetry       0


 Perturbation symmetry.     KSYMOP:           2
 Perturbation spin symmetry.TRPLET:           F
 Orbital variables.         KZWOPT:         138
 Configuration variables.   KZCONF:           0
 Total number of variables. KZVAR :         138


 RSPLR -- linear response calculation for symmetry 2  ( B1 )
 RSPLR -- operator label : XDIPLEN 
 RSPLR -- operator spin  :   0
 RSPLR -- frequencies    :     0.000000  0.012277  0.024553  0.036830  0.049107
                               0.061384  0.073660  0.085937  0.098214



 ---  SOLVING SETS OF LINEAR EQUATIONS FOR LINEAR RESPONSE PROPERTIES ---

 Operator symmetry = 2  ( B1 ); triplet =   F


 ** RSPCTL MICROITERATION NUMBER    1

       No.  Residual tot.,    conf., and orb.    Bnorm      Frequency 
      ----------------------------------------------------------------
         1    1.45334D+00  0.00D+00  1.45D+00  4.89D+00    0.00000D+00
         2    1.45424D+00  0.00D+00  1.45D+00  4.90D+00    1.22767D-02
         3    1.45696D+00  0.00D+00  1.46D+00  4.94D+00    2.45535D-02
         4    1.46156D+00  0.00D+00  1.46D+00  5.01D+00    3.68302D-02
         5    1.46816D+00  0.00D+00  1.47D+00  5.10D+00    4.91070D-02
         6    1.47695D+00  0.00D+00  1.48D+00  5.23D+00    6.13838D-02
         7    1.48820D+00  0.00D+00  1.49D+00  5.40D+00    7.36605D-02
         8    1.50229D+00  0.00D+00  1.50D+00  5.62D+00    8.59372D-02
         9    1.51982D+00  0.00D+00  1.52D+00  5.89D+00    9.82140D-02

 ** RSPCTL MICROITERATION NUMBER    2

       No.  Residual tot.,    conf., and orb.    Bnorm      Frequency 
      ----------------------------------------------------------------
         1    7.66973D-02  0.00D+00  7.67D-02  5.09D+00    0.00000D+00
         2    7.70540D-02  0.00D+00  7.71D-02  5.11D+00    1.22767D-02
         3    7.81395D-02  0.00D+00  7.81D-02  5.15D+00    2.45535D-02
         4    8.00016D-02  0.00D+00  8.00D-02  5.23D+00    3.68302D-02
         5    8.27260D-02  0.00D+00  8.27D-02  5.34D+00    4.91070D-02
         6    8.64466D-02  0.00D+00  8.64D-02  5.49D+00    6.13838D-02
         7    9.13637D-02  0.00D+00  9.14D-02  5.68D+00    7.36605D-02
         8    9.77751D-02  0.00D+00  9.78D-02  5.93D+00    8.59372D-02
         9    1.06132D-01  0.00D+00  1.06D-01  6.26D+00    9.82140D-02

 ** RSPCTL MICROITERATION NUMBER    3

       No.  Residual tot.,    conf., and orb.    Bnorm      Frequency 
      ----------------------------------------------------------------
         1    6.25733D-03  0.00D+00  6.26D-03  5.09D+00    0.00000D+00
         2    6.35139D-03  0.00D+00  6.35D-03  5.11D+00    1.22767D-02
         3    6.63532D-03  0.00D+00  6.64D-03  5.15D+00    2.45535D-02
         4    7.11551D-03  0.00D+00  7.12D-03  5.23D+00    3.68302D-02
         5    7.80587D-03  0.00D+00  7.81D-03  5.34D+00    4.91070D-02
         6    8.73228D-03  0.00D+00  8.73D-03  5.49D+00    6.13838D-02
         7    9.93872D-03  0.00D+00  9.94D-03  5.68D+00    7.36605D-02
         8    1.14965D-02  0.00D+00  1.15D-02  5.94D+00    8.59372D-02
         9    1.35199D-02  0.00D+00  1.35D-02  6.26D+00    9.82140D-02

 ** RSPCTL MICROITERATION NUMBER    4

       No.  Residual tot.,    conf., and orb.    Bnorm      Frequency 
      ----------------------------------------------------------------
         1    7.35188D-04  0.00D+00  7.35D-04  5.09D+00    0.00000D+00
         2    7.47067D-04  0.00D+00  7.47D-04  5.11D+00    1.22767D-02
         3    7.83087D-04  0.00D+00  7.83D-04  5.15D+00    2.45535D-02
         4    8.44544D-04  0.00D+00  8.45D-04  5.23D+00    3.68302D-02
         5    9.34041D-04  0.00D+00  9.34D-04  5.34D+00    4.91070D-02
         6    1.05613D-03  0.00D+00  1.06D-03  5.49D+00    6.13838D-02
         7    1.21828D-03  0.00D+00  1.22D-03  5.68D+00    7.36605D-02
         8    1.43241D-03  0.00D+00  1.43D-03  5.94D+00    8.59372D-02
         9    1.71755D-03  0.00D+00  1.72D-03  6.26D+00    9.82140D-02

 *** THE REQUESTED    9 SOLUTION VECTORS CONVERGED

 Convergence of RSP solution vectors, threshold = 1.00D-03
 ---------------------------------------------------------------
 (dimension of paired reduced space:   72)
 RSP solution vector no.    1; norm of residual   1.44D-04
 RSP solution vector no.    2; norm of residual   1.46D-04
 RSP solution vector no.    3; norm of residual   1.52D-04
 RSP solution vector no.    4; norm of residual   1.62D-04
 RSP solution vector no.    5; norm of residual   1.75D-04
 RSP solution vector no.    6; norm of residual   1.92D-04
 RSP solution vector no.    7; norm of residual   2.14D-04
 RSP solution vector no.    8; norm of residual   2.41D-04
 RSP solution vector no.    9; norm of residual   2.74D-04

 *** RSPCTL MICROITERATIONS CONVERGED


           Final output of second order properties from linear response
           ------------------------------------------------------------


@ Spin symmetry of operators: singlet

 Note that minus the linear response function: - << A; B >>(omega) is printed.
 The results are of quadratic accuracy using Sellers formula.

@ FREQUENCY INDEPENDENT SECOND ORDER PROPERTIES

@ -<< XDIPLEN  ; XDIPLEN  >> =  2.353306954135E+01

@ FREQUENCY DEPENDENT SECOND ORDER PROPERTIES WITH FREQUENCY :

@    a.u.:  1.2276750D-02
@    cm-1:  2.6944352D+03
@    eV  :  3.3406736D-01
@  kJ/mol:  3.2232602D+01
@    nm  :  3.7113530D+03

@ -<< XDIPLEN  ; XDIPLEN  >> =  2.356047465767E+01

@ FREQUENCY DEPENDENT SECOND ORDER PROPERTIES WITH FREQUENCY :

@    a.u.:  2.4553500D-02
@    cm-1:  5.3888703D+03
@    eV  :  6.6813472D-01
@  kJ/mol:  6.4465204D+01
@    nm  :  1.8556765D+03

@ -<< XDIPLEN  ; XDIPLEN  >> =  2.364343606309E+01

@ FREQUENCY DEPENDENT SECOND ORDER PROPERTIES WITH FREQUENCY :

@    a.u.:  3.6830250D-02
@    cm-1:  8.0833055D+03
@    eV  :  1.0022021D+00
@  kJ/mol:  9.6697806D+01
@    nm  :  1.2371177D+03

@ -<< XDIPLEN  ; XDIPLEN  >> =  2.378426101493E+01

@ FREQUENCY DEPENDENT SECOND ORDER PROPERTIES WITH FREQUENCY :

@    a.u.:  4.9107000D-02
@    cm-1:  1.0777741D+04
@    eV  :  1.3362694D+00
@  kJ/mol:  1.2893041D+02
@    nm  :  9.2783825D+02

@ -<< XDIPLEN  ; XDIPLEN  >> =  2.398703933535E+01

@ FREQUENCY DEPENDENT SECOND ORDER PROPERTIES WITH FREQUENCY :

@    a.u.:  6.1383750D-02
@    cm-1:  1.3472176D+04
@    eV  :  1.6703368D+00
@  kJ/mol:  1.6116301D+02
@    nm  :  7.4227060D+02

@ -<< XDIPLEN  ; XDIPLEN  >> =  2.425806451483E+01

@ FREQUENCY DEPENDENT SECOND ORDER PROPERTIES WITH FREQUENCY :

@    a.u.:  7.3660500D-02
@    cm-1:  1.6166611D+04
@    eV  :  2.0044042D+00
@  kJ/mol:  1.9339561D+02
@    nm  :  6.1855883D+02

@ -<< XDIPLEN  ; XDIPLEN  >> =  2.460655389316E+01

@ FREQUENCY DEPENDENT SECOND ORDER PROPERTIES WITH FREQUENCY :

@    a.u.:  8.5937250D-02
@    cm-1:  1.8861046D+04
@    eV  :  2.3384715D+00
@  kJ/mol:  2.2562822D+02
@    nm  :  5.3019329D+02

@ -<< XDIPLEN  ; XDIPLEN  >> =  2.504586270880E+01

@ FREQUENCY DEPENDENT SECOND ORDER PROPERTIES WITH FREQUENCY :

@    a.u.:  9.8214000D-02
@    cm-1:  2.1555481D+04
@    eV  :  2.6725389D+00
@  kJ/mol:  2.5786082D+02
@    nm  :  4.6391913D+02

@ -<< XDIPLEN  ; XDIPLEN  >> =  2.559558258761E+01


 Time used in linear response calculation is      0.15 CPU seconds for symmetry 2
 ----------------------------------------------------------------
 ----- Linear response calculation
 ----- Symmetry of excitation/property operator(s)    3  ( B2 )
 ----------------------------------------------------------------

 Number of excitations of this symmetry            0
 Number of response properties of this symmetry    1
 Number of C6/C8 properties of this symmetry       0


 Perturbation symmetry.     KSYMOP:           3
 Perturbation spin symmetry.TRPLET:           F
 Orbital variables.         KZWOPT:         138
 Configuration variables.   KZCONF:           0
 Total number of variables. KZVAR :         138


 RSPLR -- linear response calculation for symmetry 3  ( B2 )
 RSPLR -- operator label : YDIPLEN 
 RSPLR -- operator spin  :   0
 RSPLR -- frequencies    :     0.000000  0.012277  0.024553  0.036830  0.049107
                               0.061384  0.073660  0.085937  0.098214



 ---  SOLVING SETS OF LINEAR EQUATIONS FOR LINEAR RESPONSE PROPERTIES ---

 Operator symmetry = 3  ( B2 ); triplet =   F


 ** RSPCTL MICROITERATION NUMBER    1

       No.  Residual tot.,    conf., and orb.    Bnorm      Frequency 
      ----------------------------------------------------------------
         1    1.49896D+00  0.00D+00  1.50D+00  4.88D+00    0.00000D+00
         2    1.49994D+00  0.00D+00  1.50D+00  4.89D+00    1.22767D-02
         3    1.50291D+00  0.00D+00  1.50D+00  4.93D+00    2.45535D-02
         4    1.50795D+00  0.00D+00  1.51D+00  5.00D+00    3.68302D-02
         5    1.51517D+00  0.00D+00  1.52D+00  5.09D+00    4.91070D-02
         6    1.52477D+00  0.00D+00  1.52D+00  5.22D+00    6.13838D-02
         7    1.53705D+00  0.00D+00  1.54D+00  5.39D+00    7.36605D-02
         8    1.55243D+00  0.00D+00  1.55D+00  5.60D+00    8.59372D-02
         9    1.57154D+00  0.00D+00  1.57D+00  5.87D+00    9.82140D-02

 ** RSPCTL MICROITERATION NUMBER    2

       No.  Residual tot.,    conf., and orb.    Bnorm      Frequency 
      ----------------------------------------------------------------
         1    8.68702D-02  0.00D+00  8.69D-02  5.09D+00    0.00000D+00
         2    8.72778D-02  0.00D+00  8.73D-02  5.11D+00    1.22767D-02
         3    8.85182D-02  0.00D+00  8.85D-02  5.15D+00    2.45535D-02
         4    9.06468D-02  0.00D+00  9.06D-02  5.23D+00    3.68302D-02
         5    9.37627D-02  0.00D+00  9.38D-02  5.34D+00    4.91070D-02
         6    9.80229D-02  0.00D+00  9.80D-02  5.49D+00    6.13838D-02
         7    1.03664D-01  0.00D+00  1.04D-01  5.68D+00    7.36605D-02
         8    1.11042D-01  0.00D+00  1.11D-01  5.93D+00    8.59372D-02
         9    1.20704D-01  0.00D+00  1.21D-01  6.26D+00    9.82140D-02

 ** RSPCTL MICROITERATION NUMBER    3

       No.  Residual tot.,    conf., and orb.    Bnorm      Frequency 
      ----------------------------------------------------------------
         1    5.95162D-03  0.00D+00  5.95D-03  5.09D+00    0.00000D+00
         2    6.02946D-03  0.00D+00  6.03D-03  5.11D+00    1.22767D-02
         3    6.26610D-03  0.00D+00  6.27D-03  5.15D+00    2.45535D-02
         4    6.67160D-03  0.00D+00  6.67D-03  5.23D+00    3.68302D-02
         5    7.26517D-03  0.00D+00  7.27D-03  5.34D+00    4.91070D-02
         6    8.07904D-03  0.00D+00  8.08D-03  5.49D+00    6.13838D-02
         7    9.16480D-03  0.00D+00  9.16D-03  5.68D+00    7.36605D-02
         8    1.06038D-02  0.00D+00  1.06D-02  5.94D+00    8.59372D-02
         9    1.25254D-02  0.00D+00  1.25D-02  6.26D+00    9.82140D-02

 ** RSPCTL MICROITERATION NUMBER    4

       No.  Residual tot.,    conf., and orb.    Bnorm      Frequency 
      ----------------------------------------------------------------
         1    9.91676D-04  0.00D+00  9.92D-04  5.09D+00    0.00000D+00
         2    9.98693D-04  0.00D+00  9.99D-04  5.11D+00    1.22767D-02
         3    1.02032D-03  0.00D+00  1.02D-03  5.15D+00    2.45535D-02
         4    1.05834D-03  0.00D+00  1.06D-03  5.23D+00    3.68302D-02
         5    1.11598D-03  0.00D+00  1.12D-03  5.34D+00    4.91070D-02
         6    1.19837D-03  0.00D+00  1.20D-03  5.49D+00    6.13838D-02
         7    1.31326D-03  0.00D+00  1.31D-03  5.68D+00    7.36605D-02
         8    1.47236D-03  0.00D+00  1.47D-03  5.94D+00    8.59372D-02
         9    1.69369D-03  0.00D+00  1.69D-03  6.26D+00    9.82140D-02

 *** THE REQUESTED    9 SOLUTION VECTORS CONVERGED

 Convergence of RSP solution vectors, threshold = 1.00D-03
 ---------------------------------------------------------------
 (dimension of paired reduced space:   72)
 RSP solution vector no.    1; norm of residual   1.95D-04
 RSP solution vector no.    2; norm of residual   1.95D-04
 RSP solution vector no.    3; norm of residual   1.98D-04
 RSP solution vector no.    4; norm of residual   2.02D-04
 RSP solution vector no.    5; norm of residual   2.09D-04
 RSP solution vector no.    6; norm of residual   2.18D-04
 RSP solution vector no.    7; norm of residual   2.31D-04
 RSP solution vector no.    8; norm of residual   2.48D-04
 RSP solution vector no.    9; norm of residual   2.70D-04

 *** RSPCTL MICROITERATIONS CONVERGED


           Final output of second order properties from linear response
           ------------------------------------------------------------


@ Spin symmetry of operators: singlet

 Note that minus the linear response function: - << A; B >>(omega) is printed.
 The results are of quadratic accuracy using Sellers formula.

@ FREQUENCY INDEPENDENT SECOND ORDER PROPERTIES

@ -<< YDIPLEN  ; YDIPLEN  >> =  2.353306950852E+01

@ FREQUENCY DEPENDENT SECOND ORDER PROPERTIES WITH FREQUENCY :

@    a.u.:  1.2276750D-02
@    cm-1:  2.6944352D+03
@    eV  :  3.3406736D-01
@  kJ/mol:  3.2232602D+01
@    nm  :  3.7113530D+03

@ -<< YDIPLEN  ; YDIPLEN  >> =  2.356047462572E+01

@ FREQUENCY DEPENDENT SECOND ORDER PROPERTIES WITH FREQUENCY :

@    a.u.:  2.4553500D-02
@    cm-1:  5.3888703D+03
@    eV  :  6.6813472D-01
@  kJ/mol:  6.4465204D+01
@    nm  :  1.8556765D+03

@ -<< YDIPLEN  ; YDIPLEN  >> =  2.364343603393E+01

@ FREQUENCY DEPENDENT SECOND ORDER PROPERTIES WITH FREQUENCY :

@    a.u.:  3.6830250D-02
@    cm-1:  8.0833055D+03
@    eV  :  1.0022021D+00
@  kJ/mol:  9.6697806D+01
@    nm  :  1.2371177D+03

@ -<< YDIPLEN  ; YDIPLEN  >> =  2.378426099092E+01

@ FREQUENCY DEPENDENT SECOND ORDER PROPERTIES WITH FREQUENCY :

@    a.u.:  4.9107000D-02
@    cm-1:  1.0777741D+04
@    eV  :  1.3362694D+00
@  kJ/mol:  1.2893041D+02
@    nm  :  9.2783825D+02

@ -<< YDIPLEN  ; YDIPLEN  >> =  2.398703931974E+01

@ FREQUENCY DEPENDENT SECOND ORDER PROPERTIES WITH FREQUENCY :

@    a.u.:  6.1383750D-02
@    cm-1:  1.3472176D+04
@    eV  :  1.6703368D+00
@  kJ/mol:  1.6116301D+02
@    nm  :  7.4227060D+02

@ -<< YDIPLEN  ; YDIPLEN  >> =  2.425806451243E+01

@ FREQUENCY DEPENDENT SECOND ORDER PROPERTIES WITH FREQUENCY :

@    a.u.:  7.3660500D-02
@    cm-1:  1.6166611D+04
@    eV  :  2.0044042D+00
@  kJ/mol:  1.9339561D+02
@    nm  :  6.1855883D+02

@ -<< YDIPLEN  ; YDIPLEN  >> =  2.460655391151E+01

@ FREQUENCY DEPENDENT SECOND ORDER PROPERTIES WITH FREQUENCY :

@    a.u.:  8.5937250D-02
@    cm-1:  1.8861046D+04
@    eV  :  2.3384715D+00
@  kJ/mol:  2.2562822D+02
@    nm  :  5.3019329D+02

@ -<< YDIPLEN  ; YDIPLEN  >> =  2.504586276029E+01

@ FREQUENCY DEPENDENT SECOND ORDER PROPERTIES WITH FREQUENCY :

@    a.u.:  9.8214000D-02
@    cm-1:  2.1555481D+04
@    eV  :  2.6725389D+00
@  kJ/mol:  2.5786082D+02
@    nm  :  4.6391913D+02

@ -<< YDIPLEN  ; YDIPLEN  >> =  2.559558269368E+01


 Time used in linear response calculation is      0.13 CPU seconds for symmetry 3

  Total CPU  time used in RESPONSE:   0.44 seconds
  Total wall time used in RESPONSE:   0.45 seconds


                   .-------------------------------------------.
                   | End of Dynamic Property Section (RESPONS) |
                   `-------------------------------------------'

  Total CPU  time used in DALTON:   0.82 seconds
  Total wall time used in DALTON:   0.94 seconds

 
     Date and time (Linux)  : Wed Jan 11 14:14:18 2023
     Host name              : cn042                                   
