

     ************************************************************************
     *************** Dalton - An Electronic Structure Program ***************
     ************************************************************************

    This is output from DALTON release Dalton2020.0 (2020)
         ( Web site: http://daltonprogram.org )

   ----------------------------------------------------------------------------

    NOTE:
     
    Dalton is an experimental code for the evaluation of molecular
    properties using (MC)SCF, DFT, CI, and CC wave functions.
    The authors accept no responsibility for the performance of
    the code or for the correctness of the results.
     
    The code (in whole or part) is provided under a licence and
    is not to be reproduced for further distribution without
    the written permission of the authors or their representatives.
     
    See the home page "http://daltonprogram.org" for further information.
     
    If results obtained with this code are published,
    the appropriate citations would be both of:
     
       K. Aidas, C. Angeli, K. L. Bak, V. Bakken, R. Bast,
       L. Boman, O. Christiansen, R. Cimiraglia, S. Coriani,
       P. Dahle, E. K. Dalskov, U. Ekstroem,
       T. Enevoldsen, J. J. Eriksen, P. Ettenhuber, B. Fernandez,
       L. Ferrighi, H. Fliegl, L. Frediani, K. Hald, A. Halkier,
       C. Haettig, H. Heiberg, T. Helgaker, A. C. Hennum,
       H. Hettema, E. Hjertenaes, S. Hoest, I.-M. Hoeyvik,
       M. F. Iozzi, B. Jansik, H. J. Aa. Jensen, D. Jonsson,
       P. Joergensen, J. Kauczor, S. Kirpekar,
       T. Kjaergaard, W. Klopper, S. Knecht, R. Kobayashi, H. Koch,
       J. Kongsted, A. Krapp, K. Kristensen, A. Ligabue,
       O. B. Lutnaes, J. I. Melo, K. V. Mikkelsen, R. H. Myhre,
       C. Neiss, C. B. Nielsen, P. Norman, J. Olsen,
       J. M. H. Olsen, A. Osted, M. J. Packer, F. Pawlowski,
       T. B. Pedersen, P. F. Provasi, S. Reine, Z. Rinkevicius,
       T. A. Ruden, K. Ruud, V. Rybkin, P. Salek, C. C. M. Samson,
       A. Sanchez de Meras, T. Saue, S. P. A. Sauer,
       B. Schimmelpfennig, K. Sneskov, A. H. Steindal,
       K. O. Sylvester-Hvid, P. R. Taylor, A. M. Teale,
       E. I. Tellgren, D. P. Tew, A. J. Thorvaldsen, L. Thoegersen,
       O. Vahtras, M. A. Watson, D. J. D. Wilson, M. Ziolkowski
       and H. Agren,
       "The Dalton quantum chemistry program system",
       WIREs Comput. Mol. Sci. 2014, 4:269–284 (doi: 10.1002/wcms.1172)
     
    and
     
       Dalton, a molecular electronic structure program,
       Release Dalton2020.0 (2020), see http://daltonprogram.org
   ----------------------------------------------------------------------------

    Authors in alphabetical order (Major contribution(s) in parenthesis):

  Kestutis Aidas,           Vilnius University,           Lithuania   (QM/MM)
  Celestino Angeli,         University of Ferrara,        Italy       (NEVPT2)
  Keld L. Bak,              UNI-C,                        Denmark     (AOSOPPA, non-adiabatic coupling, magnetic properties)
  Vebjoern Bakken,          University of Oslo,           Norway      (DALTON; geometry optimizer, symmetry detection)
  Radovan Bast,             UiT The Arctic U. of Norway,  Norway      (DALTON installation and execution frameworks)
  Pablo Baudin,             University of Valencia,       Spain       (Cholesky excitation energies)
  Linus Boman,              NTNU,                         Norway      (Cholesky decomposition and subsystems)
  Bruno N. Cabral Tenorio,  Technical Univ. of Denmark,   Denmark     (Lanczos-based CC methods)
  Ove Christiansen,         Aarhus University,            Denmark     (CC module)
  Renzo Cimiraglia,         University of Ferrara,        Italy       (NEVPT2)
  Sonia Coriani,            Technical Univ. of Denmark,   Denmark     (CC and RESPONS modules)
  Janusz Cukras,            University of Warsaw,         Poland      (MChD in RESPONS)
  Paal Dahle,               University of Oslo,           Norway      (Parallelization)
  Erik K. Dalskov,          UNI-C,                        Denmark     (SOPPA)
  Thomas Enevoldsen,        Univ. of Southern Denmark,    Denmark     (SOPPA)
  Janus J. Eriksen,         Aarhus University,            Denmark     (Polarizable embedding, TDA)
  Rasmus Faber,             Technical Univ. of Denmark,   Denmark     (Vib.avg. NMR w. SOPPA, parallel AO-SOPPA, CVS-CC and EOMCC)
  Tobias Fahleson,          KTH Stockholm,                Sweden      (Damped cubic response)
  Berta Fernandez,          U. of Santiago de Compostela, Spain       (Doublet spin, ESR in RESPONS)
  Lara Ferrighi,            Aarhus University,            Denmark     (PCM Cubic response)
  Heike Fliegl,             University of Oslo,           Norway      (CCSD(R12))
  Luca Frediani,            UiT The Arctic U. of Norway,  Norway      (PCM)
  Emmanuel Fromager,        Univ. Strasbourg,             France      (MC-srDFT)
  Bin Gao,                  UiT The Arctic U. of Norway,  Norway      (Gen1Int library)
  Andre S. P. Gomes,        CNRS/Universite de Lille,     France      (Frozen density embedding)
  Christof Haettig,         Ruhr-University Bochum,       Germany     (CC module)
  Kasper Hald,              Aarhus University,            Denmark     (CC module)
  Asger Halkier,            Aarhus University,            Denmark     (CC module)
  Frederik Beyer Hansen,    University of Copenhagen,     Denmark     (Parallel AO-SOPPA)
  Erik D. Hedegaard,        Univ. of Southern Denmark,    Denmark     (Polarizable embedding, QM/MM, and MC-srDFT)
  Hanne Heiberg,            University of Oslo,           Norway      (Geometry analysis, selected one-electron integrals)
  Trygve Helgaker,          University of Oslo,           Norway      (DALTON; ABACUS, ERI, DFT modules, London, and much more)
  Alf Christian Hennum,     University of Oslo,           Norway      (Parity violation)
  Hinne Hettema,            University of Auckland,       New Zealand (Quadratic response in RESPONS; SIRIUS supersymmetry)
  Eirik Hjertenaes,         NTNU,                         Norway      (Cholesky decomposition)
  Pi A. B. Haase,           University of Copenhagen,     Denmark     (Triplet AO-SOPPA)
  Maria Francesca Iozzi,    University of Oslo,           Norway      (RPA)
  Christoph Jacob           TU Braunschweig               Germany     (Frozen density embedding)
  Brano Jansik              Technical Univ. of Ostrava    Czech Rep.  (DFT cubic response)
  Hans Joergen Aa. Jensen,  Univ. of Southern Denmark,    Denmark     (DALTON; SIRIUS, RESPONS, ABACUS, MC-srDFT, and much more)
  Dan Jonsson,              UiT The Arctic U. of Norway,  Norway      (Cubic response in RESPONS module)
  Poul Joergensen,          Aarhus University,            Denmark     (RESPONS, ABACUS, and CC modules)
  Maciej Kaminski,          University of Warsaw,         Poland      (CPPh in RESPONS)
  Joanna Kauczor,           Linkoeping University,        Sweden      (Complex polarization propagator (CPP) module)
  Sheela Kirpekar,          Univ. of Southern Denmark,    Denmark     (Mass-velocity & Darwin integrals)
  Erik Kjellgren,           Univ. of Southern Denmark,    Denmark     (MC-srDFT)
  Wim Klopper,              KIT Karlsruhe,                Germany     (R12 code in CC, SIRIUS, and ABACUS modules)
  Stefan Knecht,            ETH Zurich,                   Switzerland (Parallel CI and MCSCF, MC-srDFT)
  Rika Kobayashi,           Australian National Univ.,    Australia   (DIIS in CC, London in MCSCF)
  Henrik Koch,              NTNU,                         Norway      (CC module, Cholesky decomposition)
  Jacob Kongsted,           Univ. of Southern Denmark,    Denmark     (Polarizable embedding, polarizable density embedding, QM/MM)
  Andrea Ligabue,           University of Modena,         Italy       (CTOCD, AOSOPPA)
  Nanna H. List             Univ. of Southern Denmark,    Denmark     (Polarizable embedding)
  Ola B. Lutnaes,           University of Oslo,           Norway      (DFT Hessian)
  Juan I. Melo,             University of Buenos Aires,   Argentina   (LRESC, Relativistic Effects on NMR Shieldings)
  Kurt V. Mikkelsen,        University of Copenhagen,     Denmark     (MC-SCRF and QM/MM)
  Rolf H. Myhre,            NTNU,                         Norway      (Subsystems and CC3)
  Christian Neiss,          Univ. Erlangen-Nuernberg,     Germany     (CCSD(R12))
  Christian B. Nielsen,     University of Copenhagen,     Denmark     (QM/MM)
  Patrick Norman,           KTH Stockholm,                Sweden      (Cubic response and complex frequency response in RESPONS)
  Jeppe Olsen,              Aarhus University,            Denmark     (SIRIUS CI/density modules)
  Jogvan Magnus H. Olsen,   Aarhus University,            Denmark     (Polarizable embedding and polarizable density embedding)
  Anders Osted,             Copenhagen University,        Denmark     (QM/MM)
  Martin J. Packer,         University of Sheffield,      UK          (SOPPA)
  Filip Pawlowski,          Kazimierz Wielki University,  Poland      (CC3)
  Morten N. Pedersen,       Univ. of Southern Denmark,    Denmark     (Polarizable embedding)
  Thomas B. Pedersen,       University of Oslo,           Norway      (Cholesky decomposition)
  Patricio F. Provasi,      University of Northeastern,   Argentina   (Analysis of coupling constants in localized orbitals)
  Peter Reinholdt,          Univ. of Southern Denmark,    Denmark     (Polarizable embedding and polarizable density embedding)
  Zilvinas Rinkevicius,     KTH Stockholm,                Sweden      (open-shell DFT, ESR)
  Elias Rudberg,            KTH Stockholm,                Sweden      (DFT grid and basis info)
  Torgeir A. Ruden,         University of Oslo,           Norway      (Numerical derivatives in ABACUS)
  Kenneth Ruud,             UiT The Arctic U. of Norway,  Norway      (DALTON; ABACUS magnetic properties and much more)
  Pawel Salek,              KTH Stockholm,                Sweden      (DALTON; DFT code)
  Claire C. M. Samson       University of Karlsruhe       Germany     (Boys localization, r12 integrals in ERI)
  Alfredo Sanchez de Meras, University of Valencia,       Spain       (CC module, Cholesky decomposition)
  Trond Saue,               Paul Sabatier University,     France      (direct Fock matrix construction)
  Stephan P. A. Sauer,      University of Copenhagen,     Denmark     (SOPPA(CCSD), SOPPA prop., AOSOPPA, vibrational g-factors)
  Bernd Schimmelpfennig,    Forschungszentrum Karlsruhe,  Germany     (AMFI module)
  Anna K. Schnack-Petersen, University of Copenhagen,     Denmark     (RPA(D) and HRPA(D) properties in AOSOPPA)
  Kristian Sneskov,         Aarhus University,            Denmark     (Polarizable embedding, QM/MM)
  Arnfinn H. Steindal,      UiT The Arctic U. of Norway,  Norway      (parallel QM/MM, polarizable embedding)
  Casper Steinmann,         Aalborg University,           Denmark     (QFIT, polarizable embedding)
  K. O. Sylvester-Hvid,     University of Copenhagen,     Denmark     (MC-SCRF)
  Peter R. Taylor,          VLSCI/Univ. of Melbourne,     Australia   (Symmetry handling ABACUS, integral transformation)
  Andrew M. Teale,          University of Nottingham,     England     (DFT-AC, DFT-D)
  David P. Tew,             University of Bristol,        England     (CCSD(R12))
  Julien Toulouse,          Sorbonne Univ.,               France      (MC-srDFT)
  Olav Vahtras,             KTH Stockholm,                Sweden      (Triplet response, spin-orbit, ESR, TDDFT, open-shell DFT)
  Lucas Visscher,           Vrije Universiteit Amsterdam, Netherlands (Frozen density embedding)
  David J. Wilson,          La Trobe University,          Australia   (DFT Hessian and DFT magnetizabilities)
  Hans Agren,               KTH Stockholm,                Sweden      (SIRIUS module, RESPONS, MC-SCRF solvation)
 --------------------------------------------------------------------------------

     Date and time (Linux)  : Wed Jan 11 15:38:36 2023
     Host name              : cn020                                   

 * Work memory size             :    64000000 =  488.28 megabytes.

 * Directories for basis set searches:
   1) /gpfs/projects/rjh/adrian/fd_compare/dalton/hf/NaCl/dipole
   2) /gpfs/projects/rjh/adrian/dalton/build/basis


Compilation information
-----------------------

 Who compiled             | ahurtado
 Host                     | sn-mem
 System                   | Linux-3.10.0-1160.24.1.el7.x86_64
 CMake generator          | Unix Makefiles
 Processor                | x86_64
 64-bit integers          | OFF
 MPI                      | ON
 Fortran compiler         | /gpfs/software/intel/oneAPI/2021_4/mpi/2021.4.0/bi
                          | n/mpif90
 Fortran compiler version | GNU Fortran (GCC) 11.2.0
 C compiler               | /gpfs/software/intel/oneAPI/2021_4/mpi/2021.4.0/bi
                          | n/mpicc
 C compiler version       | gcc (GCC) 11.2.0
 C++ compiler             | /gpfs/software/intel/oneAPI/2021_4/mpi/2021.4.0/bi
                          | n/mpicxx
 C++ compiler version     | unknown
 BLAS                     | /gpfs/software/intel/oneAPI/2021_4/mkl/2021.4.0/li
                          | b/intel64/libmkl_gf_lp64.so;/gpfs/software/intel/o
                          | neAPI/2021_4/mkl/2021.4.0/lib/intel64/libmkl_seque
                          | ntial.so;/gpfs/software/intel/oneAPI/2021_4/mkl/20
                          | 21.4.0/lib/intel64/libmkl_core.so;/usr/lib64/libpt
                          | hread.so;/usr/lib64/libm.so
 LAPACK                   | /gpfs/software/intel/oneAPI/2021_4/mkl/2021.4.0/li
                          | b/intel64/libmkl_lapack95_lp64.a;/gpfs/software/in
                          | tel/oneAPI/2021_4/mkl/2021.4.0/lib/intel64/libmkl_
                          | gf_lp64.so
 Static linking           | OFF
 Last Git revision        | 66052b3af5ea7225e31178bf9a8b031913c72190
 Git branch               | (HEAD detached at Dalton2020.0)
 Configuration time       | 2023-01-11 13:33:37.731835

 * MPI parallel run using 20 processes.


   Content of the .dal input file
 ----------------------------------

**DALTON INPUT
.RUN RESPONSE
.DIRECT
**WAVE FUNCTIONS
.HF
**RESPONSE
*LINEAR
.DIPLEN
.FREQUENCIES
9
0.0 0.01227675 0.0245535 0.036830249999999995 0.049107 0.06138375 0.07366049999999999 0.085937249999
**END OF DALTON INPUT


   Content of the .mol file
 ----------------------------

BASIS
d-aug-cc-pCVTZ
blah
blah
Atomtype=2 Atomic
Charge=11 Atoms=1
Na_a 0.000000000000 0.000000000000 0.000000000000
Charge=17 Atoms=1
Cl_a 0.000000000000 0.000000000000 4.461300000000


       *******************************************************************
       *********** Output from DALTON general input processing ***********
       *******************************************************************

 --------------------------------------------------------------------------------
   Overall default print level:    0
   Print level for DALTON.STAT:    1

    Parallel calculation using MPI
    AO-direct calculation (in sections where implemented)
    HERMIT 1- and 2-electron integral sections will be executed
    "Old" integral transformation used (limited to max 255 basis functions)
    Wave function sections will be executed (SIRIUS module)
    Dynamic molecular response properties section will be executed (RESPONSE module)
 --------------------------------------------------------------------------------


   ****************************************************************************
   *************** Output of molecule and basis set information ***************
   ****************************************************************************


    The two title cards from your ".mol" input:
    ------------------------------------------------------------------------
 1: blah                                                                    
 2: blah                                                                    
    ------------------------------------------------------------------------

  Atomic type no.    1
  --------------------
  Nuclear charge:  11.00000
  Number of symmetry independent centers:    1
  Number of basis sets to read;    2
  Basis set file used for this atomic type with Z =  11 :
     "/gpfs/projects/rjh/adrian/dalton/build/basis/aug-cc-pCVTZ"

  Atomic type no.    2
  --------------------
  Nuclear charge:  17.00000
  Number of symmetry independent centers:    1
  Number of basis sets to read;    2
  Basis set file used for this atomic type with Z =  17 :
     "/gpfs/projects/rjh/adrian/dalton/build/basis/aug-cc-pCVTZ"


                      SYMADD: Requested addition of symmetry
                      --------------------------------------

 Symmetry test threshold:  5.00E-06

@   The molecule is centered at center of mass and rotated
@   so principal axes of inertia are along coordinate axes.

 Symmetry class found: C(oo,v)        

 Symmetry Independent Centres             
 ----------------------------
Cl_a  17 :      0.00000000     0.00000000     1.76961176  Isotope  1
Na_a  11 :      0.00000000     0.00000000    -2.69168824  Isotope  1

 The following symmetry elements were found:   X  Y     


                         SYMGRP: Point group information
                         -------------------------------

@    Full point group is: C(oo,v)        
@    Represented as:      C2v

@  * The irrep name for each symmetry:    1: A1     2: B1     3: B2     4: A2 

   * The point group was generated by:

      Reflection in the yz-plane
      Reflection in the xz-plane

   * Group multiplication table

        |  E   C2z  Oxz  Oyz
   -----+--------------------
     E  |  E   C2z  Oxz  Oyz
    C2z | C2z   E   Oyz  Oxz
    Oxz | Oxz  Oyz   E   C2z
    Oyz | Oyz  Oxz  C2z   E 

   * Character table

        |  E   C2z  Oxz  Oyz
   -----+--------------------
    A1  |   1    1    1    1
    B1  |   1   -1    1   -1
    B2  |   1   -1   -1    1
    A2  |   1    1   -1   -1

   * Direct product table

        | A1   B1   B2   A2 
   -----+--------------------
    A1  | A1   B1   B2   A2 
    B1  | B1   A1   A2   B2 
    B2  | B2   A2   A1   B1 
    A2  | A2   B2   B1   A1 


                                 Isotopic Masses
                                 ---------------

                           Na_a       22.989770
                           Cl_a       34.968853

                       Total mass:    57.958623 amu
                       Natural abundance:  75.770 %

 Center-of-mass coordinates (a.u.):    0.000000    0.000000    0.000000
 Center-of-mass coordinates (Angs):    0.000000    0.000000    0.000000


  Atoms and basis sets
  --------------------

  Number of atom types :    2
  Total number of atoms:    2

  Basis set used is "d-aug-cc-pCVTZ" from the basis set library.

  label    atoms   charge   prim   cont     basis
  ----------------------------------------------------------------------
  Na          1   11.0000   120    91      [20s14p6d4f|9s8p6d4f]                              
  Cl          1   17.0000   116    91      [19s13p6d4f|9s8p6d4f]                              
  ----------------------------------------------------------------------
  total:      2   28.0000   236   182
  ----------------------------------------------------------------------
  Spherical harmonic basis used.

  Threshold for neglecting AO integrals:  1.00D-12


  Cartesian Coordinates (a.u.)
  ----------------------------

  Total number of coordinates:    6
  Na_a    :     1  x   0.0000000000    2  y   0.0000000000    3  z  -2.6916882392
  Cl_a    :     4  x   0.0000000000    5  y   0.0000000000    6  z   1.7696117608


  Symmetry Coordinates
  --------------------

  Number of coordinates in each symmetry:     2    2    2    0

  Symmetry  A1  ( 1)

    1   Na_a  z    3
    2   Cl_a  z    6

  Symmetry  B1  ( 2)

    3   Na_a  x    1
    4   Cl_a  x    4

  Symmetry  B2  ( 3)

    5   Na_a  y    2
    6   Cl_a  y    5


   Interatomic separations (in Angstrom):
   --------------------------------------

            Na_a        Cl_a  
            ------      ------
 Na_a  :    0.000000
 Cl_a  :    2.360818    0.000000


  Max    interatomic separation is    2.3608 Angstrom (    4.4613 Bohr)
  between atoms    2 and    1, "Cl_a  " and "Na_a  ".

  Min YX interatomic separation is    2.3608 Angstrom (    4.4613 Bohr)


  Bond distances (Angstrom):
  --------------------------

                  atom 1     atom 2       distance
                  ------     ------       --------
  bond distance:  Cl_a       Na_a         2.360818




 Principal moments of inertia (u*A**2) and principal axes
 --------------------------------------------------------

   IA       0.000000          0.000000    0.000000    1.000000
   IB      77.307758          0.000000    1.000000    0.000000
   IC      77.307758          1.000000    0.000000    0.000000


 Rotational constants
 --------------------

@    The molecule is linear.

               B =         6537.24 MHz     (    0.218059 cm-1)


@  Nuclear repulsion energy :   41.916033443167 Hartree


  Symmetry Orbitals
  -----------------

  Number of orbitals in each symmetry:          74   44   44   20


  Symmetry  A1 ( 1)

    1     Na_a     1s         1
    2     Na_a     1s         2
    3     Na_a     1s         3
    4     Na_a     1s         4
    5     Na_a     1s         5
    6     Na_a     1s         6
    7     Na_a     1s         7
    8     Na_a     1s         8
    9     Na_a     1s         9
   10     Na_a     2pz       12
   11     Na_a     2pz       15
   12     Na_a     2pz       18
   13     Na_a     2pz       21
   14     Na_a     2pz       24
   15     Na_a     2pz       27
   16     Na_a     2pz       30
   17     Na_a     2pz       33
   18     Na_a     3d0       36
   19     Na_a     3d2+      38
   20     Na_a     3d0       41
   21     Na_a     3d2+      43
   22     Na_a     3d0       46
   23     Na_a     3d2+      48
   24     Na_a     3d0       51
   25     Na_a     3d2+      53
   26     Na_a     3d0       56
   27     Na_a     3d2+      58
   28     Na_a     3d0       61
   29     Na_a     3d2+      63
   30     Na_a     4f0       67
   31     Na_a     4f2+      69
   32     Na_a     4f0       74
   33     Na_a     4f2+      76
   34     Na_a     4f0       81
   35     Na_a     4f2+      83
   36     Na_a     4f0       88
   37     Na_a     4f2+      90
   38     Cl_a     1s        92
   39     Cl_a     1s        93
   40     Cl_a     1s        94
   41     Cl_a     1s        95
   42     Cl_a     1s        96
   43     Cl_a     1s        97
   44     Cl_a     1s        98
   45     Cl_a     1s        99
   46     Cl_a     1s       100
   47     Cl_a     2pz      103
   48     Cl_a     2pz      106
   49     Cl_a     2pz      109
   50     Cl_a     2pz      112
   51     Cl_a     2pz      115
   52     Cl_a     2pz      118
   53     Cl_a     2pz      121
   54     Cl_a     2pz      124
   55     Cl_a     3d0      127
   56     Cl_a     3d2+     129
   57     Cl_a     3d0      132
   58     Cl_a     3d2+     134
   59     Cl_a     3d0      137
   60     Cl_a     3d2+     139
   61     Cl_a     3d0      142
   62     Cl_a     3d2+     144
   63     Cl_a     3d0      147
   64     Cl_a     3d2+     149
   65     Cl_a     3d0      152
   66     Cl_a     3d2+     154
   67     Cl_a     4f0      158
   68     Cl_a     4f2+     160
   69     Cl_a     4f0      165
   70     Cl_a     4f2+     167
   71     Cl_a     4f0      172
   72     Cl_a     4f2+     174
   73     Cl_a     4f0      179
   74     Cl_a     4f2+     181


  Symmetry  B1 ( 2)

   75     Na_a     2px       10
   76     Na_a     2px       13
   77     Na_a     2px       16
   78     Na_a     2px       19
   79     Na_a     2px       22
   80     Na_a     2px       25
   81     Na_a     2px       28
   82     Na_a     2px       31
   83     Na_a     3d1+      37
   84     Na_a     3d1+      42
   85     Na_a     3d1+      47
   86     Na_a     3d1+      52
   87     Na_a     3d1+      57
   88     Na_a     3d1+      62
   89     Na_a     4f1+      68
   90     Na_a     4f3+      70
   91     Na_a     4f1+      75
   92     Na_a     4f3+      77
   93     Na_a     4f1+      82
   94     Na_a     4f3+      84
   95     Na_a     4f1+      89
   96     Na_a     4f3+      91
   97     Cl_a     2px      101
   98     Cl_a     2px      104
   99     Cl_a     2px      107
  100     Cl_a     2px      110
  101     Cl_a     2px      113
  102     Cl_a     2px      116
  103     Cl_a     2px      119
  104     Cl_a     2px      122
  105     Cl_a     3d1+     128
  106     Cl_a     3d1+     133
  107     Cl_a     3d1+     138
  108     Cl_a     3d1+     143
  109     Cl_a     3d1+     148
  110     Cl_a     3d1+     153
  111     Cl_a     4f1+     159
  112     Cl_a     4f3+     161
  113     Cl_a     4f1+     166
  114     Cl_a     4f3+     168
  115     Cl_a     4f1+     173
  116     Cl_a     4f3+     175
  117     Cl_a     4f1+     180
  118     Cl_a     4f3+     182


  Symmetry  B2 ( 3)

  119     Na_a     2py       11
  120     Na_a     2py       14
  121     Na_a     2py       17
  122     Na_a     2py       20
  123     Na_a     2py       23
  124     Na_a     2py       26
  125     Na_a     2py       29
  126     Na_a     2py       32
  127     Na_a     3d1-      35
  128     Na_a     3d1-      40
  129     Na_a     3d1-      45
  130     Na_a     3d1-      50
  131     Na_a     3d1-      55
  132     Na_a     3d1-      60
  133     Na_a     4f3-      64
  134     Na_a     4f1-      66
  135     Na_a     4f3-      71
  136     Na_a     4f1-      73
  137     Na_a     4f3-      78
  138     Na_a     4f1-      80
  139     Na_a     4f3-      85
  140     Na_a     4f1-      87
  141     Cl_a     2py      102
  142     Cl_a     2py      105
  143     Cl_a     2py      108
  144     Cl_a     2py      111
  145     Cl_a     2py      114
  146     Cl_a     2py      117
  147     Cl_a     2py      120
  148     Cl_a     2py      123
  149     Cl_a     3d1-     126
  150     Cl_a     3d1-     131
  151     Cl_a     3d1-     136
  152     Cl_a     3d1-     141
  153     Cl_a     3d1-     146
  154     Cl_a     3d1-     151
  155     Cl_a     4f3-     155
  156     Cl_a     4f1-     157
  157     Cl_a     4f3-     162
  158     Cl_a     4f1-     164
  159     Cl_a     4f3-     169
  160     Cl_a     4f1-     171
  161     Cl_a     4f3-     176
  162     Cl_a     4f1-     178


  Symmetry  A2 ( 4)

  163     Na_a     3d2-      34
  164     Na_a     3d2-      39
  165     Na_a     3d2-      44
  166     Na_a     3d2-      49
  167     Na_a     3d2-      54
  168     Na_a     3d2-      59
  169     Na_a     4f2-      65
  170     Na_a     4f2-      72
  171     Na_a     4f2-      79
  172     Na_a     4f2-      86
  173     Cl_a     3d2-     125
  174     Cl_a     3d2-     130
  175     Cl_a     3d2-     135
  176     Cl_a     3d2-     140
  177     Cl_a     3d2-     145
  178     Cl_a     3d2-     150
  179     Cl_a     4f2-     156
  180     Cl_a     4f2-     163
  181     Cl_a     4f2-     170
  182     Cl_a     4f2-     177

  Symmetries of electric field:  B1 (2)  B2 (3)  A1 (1)

  Symmetries of magnetic field:  B2 (3)  B1 (2)  A2 (4)


                     .---------------------------------------.
                     | Starting in Integral Section (HERMIT) |
                     `---------------------------------------'



 ***************************************************************************************
 ****************** Output from **INTEGRALS input processing (HERMIT) ******************
 ***************************************************************************************


 - Using defaults, no **INTEGRALS input found

 Default print level:        1

 Calculation of one-electron Hamiltonian integrals.

 Center of mass  (bohr):      0.000000000000      0.000000000000      0.000000000000
 Operator center (bohr):      0.000000000000      0.000000000000      0.000000000000
 Gauge origin    (bohr):      0.000000000000      0.000000000000      0.000000000000
 Dipole origin   (bohr):      0.000000000000      0.000000000000      0.000000000000


     ************************************************************************
     ************************** Output from HERINT **************************
     ************************************************************************



                      Nuclear contribution to dipole moments
                      --------------------------------------

                 au               Debye          C m (/(10**-30)

      z      0.47482930         1.20689563         4.02577048


  Time used in GABGEN     is       0.43 seconds
  Total CPU  time used in HERMIT:   0.74 seconds
  Total wall time used in HERMIT:   0.75 seconds


                        .----------------------------------.
                        | End of Integral Section (HERMIT) |
                        `----------------------------------'



                   .--------------------------------------------.
                   | Starting in Wave Function Section (SIRIUS) |
                   `--------------------------------------------'


 *** Output from Huckel module :

     Using EWMO model:          T
     Using EHT  model:          F
     Number of Huckel orbitals each symmetry:   12    5    5    1

 EWMO - Energy Weighted Maximum Overlap - is a Huckel type method,
        which normally is better than Extended Huckel Theory.
 Reference: Linderberg and Ohrn, Propagators in Quantum Chemistry (Wiley, 1973)

 Huckel EWMO eigenvalues for symmetry :  1
         -104.883948     -40.478552     -10.608924      -8.072225      -2.801071
           -1.524984      -1.108334      -0.511066      -0.164216      -0.079718
           -0.055556      -0.055019

 Huckel EWMO eigenvalues for symmetry :  2
           -8.072210      -1.518367      -0.513805      -0.107573      -0.054300

 Huckel EWMO eigenvalues for symmetry :  3
           -8.072210      -1.518367      -0.513805      -0.107573      -0.054300

 Huckel EWMO eigenvalues for symmetry :  4
           -0.055556

 **********************************************************************
 *SIRIUS* a direct, restricted step, second order MCSCF program       *
 **********************************************************************

 
     Date and time (Linux)  : Wed Jan 11 15:38:37 2023
     Host name              : cn020                                   

 Title lines from ".mol" input file:
     blah                                                                    
     blah                                                                    

 Print level on unit LUPRI =   2 is   0
 Print level on unit LUW4  =   2 is   5

@    Restricted, closed shell Hartree-Fock calculation.

@    Time-dependent Hartree-Fock calculation (random phase approximation).
 Fock matrices are calculated directly and in parallel without use of integrals on disk.

 Initial molecular orbitals are obtained according to
 ".MOSTART EWMO  " input option

     Wave function specification
     ============================
@    Wave function type        --- HF ---
@    Number of closed shell electrons          28
@    Number of electrons in active shells       0
@    Total charge of the molecule               0

@    Spin multiplicity and 2 M_S                1         0
@    Total number of symmetries                 4 (point group: C2v)
@    Reference state symmetry                   1 (irrep name : A1 )

     Orbital specifications
     ======================
@    Abelian symmetry species          All |    1    2    3    4
@                                          |  A1   B1   B2   A2 
                                       --- |  ---  ---  ---  ---
@    Total number of orbitals          182 |   74   44   44   20
@    Number of basis functions         182 |   74   44   44   20

      ** Automatic occupation of RHF orbitals **

      -- Initial occupation of symmetries is determined from extended Huckel guess.           
      -- Initial occupation of symmetries is :
@    Occupied SCF orbitals              14 |    8    3    3    0

     Maximum number of Fock   iterations      0
     Maximum number of DIIS   iterations     60
     Maximum number of QC-SCF iterations     60
     Threshold for SCF convergence     1.00D-05


 ***********************************************
 ***** DIIS acceleration of SCF iterations *****
 ***********************************************

 C1-DIIS algorithm; max error vectors =    8

 Automatic occupation of symmetries with  28 electrons.

 Iter     Total energy    Error norm  Delta(E)    SCF occupation
 -----------------------------------------------------------------------------
   1  Screening settings (-IFTHRS, JTDIIS, DIFDEN, times)   -7    1    T  6.64D-01  6.64D-01
@  1  -621.415597137       9.34D-01  -6.21D+02     8   3   3   0
      Virial theorem: -V/T =      1.997306
@    MULPOP   Na_a    0.83; Cl_a   -0.83; 
   1  Level shift: doubly occupied orbital energies shifted by -2.00D-01
 -----------------------------------------------------------------------------
   2  Screening settings (-IFTHRS, JTDIIS, DIFDEN, times)  -11    2    F  6.80D-01  6.80D-01
@  2  -621.453153258       2.53D-01  -3.76D-02     8   3   3   0
      Virial theorem: -V/T =      2.000917
@    MULPOP   Na_a    1.05; Cl_a   -1.05; 
   2  Level shift: doubly occupied orbital energies shifted by -1.00D-01
 -----------------------------------------------------------------------------
   3  Screening settings (-IFTHRS, JTDIIS, DIFDEN, times)  -11    3    T  6.72D-01  6.72D-01
@  3  -621.455401586       4.58D-02  -2.25D-03     8   3   3   0
      Virial theorem: -V/T =      1.999942
@    MULPOP   Na_a    1.08; Cl_a   -1.08; 
   3  Level shift: doubly occupied orbital energies shifted by -2.50D-02
 -----------------------------------------------------------------------------
   4  Screening settings (-IFTHRS, JTDIIS, DIFDEN, times)  -11    4    T  6.51D-01  6.51D-01
@  4  -621.455669954       1.25D-02  -2.68D-04     8   3   3   0
      Virial theorem: -V/T =      1.999990
@    MULPOP   Na_a    1.08; Cl_a   -1.08; 
   4  Level shift: doubly occupied orbital energies shifted by -1.25D-02
 -----------------------------------------------------------------------------
   5  Screening settings (-IFTHRS, JTDIIS, DIFDEN, times)  -11    5    T  6.70D-01  6.70D-01
@  5  -621.455705696       3.21D-03  -3.57D-05     8   3   3   0
      Virial theorem: -V/T =      2.000003
@    MULPOP   Na_a    1.08; Cl_a   -1.08; 
 -----------------------------------------------------------------------------
   6  Screening settings (-IFTHRS, JTDIIS, DIFDEN, times)  -11    6    T  6.57D-01  6.58D-01
@  6  -621.455708641       8.10D-04  -2.94D-06     8   3   3   0
      Virial theorem: -V/T =      1.999999
@    MULPOP   Na_a    1.08; Cl_a   -1.08; 
 -----------------------------------------------------------------------------
   7  Screening settings (-IFTHRS, JTDIIS, DIFDEN, times)  -11    7    T  6.69D-01  6.70D-01
@  7  -621.455708822       2.54D-04  -1.81D-07     8   3   3   0
      Virial theorem: -V/T =      2.000000
@    MULPOP   Na_a    1.08; Cl_a   -1.08; 
 -----------------------------------------------------------------------------
   8  Screening settings (-IFTHRS, JTDIIS, DIFDEN, times)  -11    8    T  6.69D-01  6.70D-01
@  8  -621.455708832       6.12D-05  -1.04D-08     8   3   3   0
      Virial theorem: -V/T =      2.000000
@    MULPOP   Na_a    1.08; Cl_a   -1.08; 
 -----------------------------------------------------------------------------
   9  Screening settings (-IFTHRS, JTDIIS, DIFDEN, times)  -11    9    T  6.67D-01  6.67D-01
@  9  -621.455708833       1.16D-05  -5.19D-10     8   3   3   0
      Virial theorem: -V/T =      2.000000
@    MULPOP   Na_a    1.08; Cl_a   -1.08; 
 -----------------------------------------------------------------------------
  10  Screening settings (-IFTHRS, JTDIIS, DIFDEN, times)  -11   10    T  6.35D-01  6.35D-01
@ 10  -621.455708833       3.40D-06  -2.86D-11     8   3   3   0

@ *** DIIS converged in  10 iterations !
@     Converged SCF energy, gradient:   -621.455708832657    3.40D-06
    - total time used in SIRFCK :              0.00 seconds


 *** SCF orbital energy analysis ***

 Only the 20 lowest virtual orbital energies printed in each symmetry.

 Number of electrons :   28
 Orbital occupations :    8    3    3    0

 Sym       Hartree-Fock orbital energies

1 A1   -104.70439571   -40.50198502   -10.42951772    -7.89571818    -2.82153999
         -1.54457828    -0.94284838    -0.37084574    -0.01982968     0.00106435
          0.00840010     0.01717834     0.02036493     0.02335585     0.03356055
          0.05665480     0.06579132     0.07414668     0.07610096     0.09782727
          0.13421397     0.14774651     0.15717003     0.18795118     0.21566266
          0.22692948     0.25112024     0.26505794

2 B1     -7.89543610    -1.54428664    -0.35410286     0.00389682     0.01470059
          0.02471584     0.04298172     0.07167130     0.08471227     0.11418064
          0.13238664     0.15368731     0.21683117     0.24469566     0.31033311
          0.35292642     0.36530915     0.42428744     0.53764237     0.62945885
          0.68287321     0.75930799     0.80321115

3 B2     -7.89543610    -1.54428664    -0.35410286     0.00389682     0.01470059
          0.02471584     0.04298172     0.07167130     0.08471227     0.11418064
          0.13238664     0.15368731     0.21683117     0.24469566     0.31033311
          0.35292642     0.36530915     0.42428744     0.53764237     0.62945885
          0.68287321     0.75930799     0.80321115

4 A2      0.02335585     0.07610096     0.13421397     0.21566266     0.26505794
          0.35090286     0.54059718     0.58578285     0.73450345     0.83398276
          1.14174705     1.65506888     2.60733670     3.46613614     3.48414370
         10.56208523    12.46385105    14.67788161    37.08328770    46.68579084

    E(LUMO) :    -0.01982968 au (symmetry 1)
  - E(HOMO) :    -0.35410286 au (symmetry 2)
  ------------------------------------------
    gap     :     0.33427318 au

 --- Writing SIRIFC interface file

 CPU and wall time for SCF :       6.706       6.714


                       .-----------------------------------.
                       | --- Final results from SIRIUS --- |
                       `-----------------------------------'


@    Spin multiplicity:           1
@    Spatial symmetry:            1 ( irrep  A1  in C2v )
@    Total charge of molecule:    0

@    Final HF energy:            -621.455708832657                 
@    Nuclear repulsion:            41.916033443167
@    Electronic energy:          -663.371742275824

@    Final gradient norm:           0.000003404926

 
     Date and time (Linux)  : Wed Jan 11 15:38:44 2023
     Host name              : cn020                                   

File label for MO orbitals:  11Jan23   FOCKDIIS

 (Only coefficients > 0.0100 are printed.)

 Molecular orbitals for symmetry species 1  (A1 )
 ------------------------------------------------

    Orbital         1        2        3        4        5        6        7
   1 Na_a:1s     0.0000  -0.9999   0.0000  -0.0003   0.0004  -0.0006   0.0008
   2 Na_a:1s     0.0001  -0.0000   0.0008  -0.0052  -0.7934  -0.0108   0.0223
   3 Na_a:1s     0.0002  -0.0001   0.0031  -0.0216   0.0079   0.0177   0.0045
   4 Na_a:1s    -0.0000  -0.0001  -0.0004   0.0007  -0.2445   0.0072   0.0019
   5 Na_a:1s    -0.0000  -0.0001  -0.0016  -0.0174  -0.0010  -0.0200   0.0336
   7 Na_a:1s     0.0000  -0.0001   0.0003  -0.0010  -0.0019  -0.0049   0.0117
  10 Na_a:2pz    0.0001   0.0003   0.0016  -0.0057   0.0111  -0.9946   0.0602
  11 Na_a:2pz    0.0002  -0.0001   0.0029  -0.0105   0.0059   0.0097   0.0062
  12 Na_a:2pz    0.0001  -0.0001   0.0006  -0.0131  -0.0027  -0.0074   0.0224
  24 Na_a:3d0    0.0001  -0.0000   0.0010  -0.0045  -0.0015  -0.0039   0.0129
  38 Cl_a:1s     1.0000  -0.0000   0.0001  -0.0001   0.0000   0.0000   0.0008
  39 Cl_a:1s     0.0000  -0.0000  -0.9980  -0.0019   0.0006   0.0004   0.0192
  40 Cl_a:1s     0.0002  -0.0000   0.0046  -0.0016   0.0000  -0.0213  -0.9168
  42 Cl_a:1s    -0.0003   0.0000  -0.0071   0.0009  -0.0034  -0.0062  -0.0664
  44 Cl_a:1s     0.0001  -0.0000   0.0013  -0.0005   0.0003  -0.0004   0.0105
  45 Cl_a:1s    -0.0002   0.0001  -0.0012   0.0287  -0.0018   0.0033  -0.0645
  46 Cl_a:1s     0.0000   0.0001   0.0015   0.0145  -0.0007   0.0118  -0.0177
  47 Cl_a:2pz   -0.0001   0.0000   0.0005  -0.9981  -0.0000   0.0007  -0.0017
  48 Cl_a:2pz   -0.0000  -0.0000  -0.0006   0.0071   0.0019   0.0183   0.0170
  50 Cl_a:2pz    0.0002  -0.0001   0.0030  -0.0126   0.0036  -0.0005   0.0310
  53 Cl_a:2pz    0.0000  -0.0001  -0.0005  -0.0109   0.0024   0.0024   0.0028
  63 Cl_a:3d0   -0.0001   0.0000  -0.0009   0.0038  -0.0015   0.0011  -0.0119

    Orbital         8        9       10       11       12       13       14
   2 Na_a:1s    -0.0538   0.0358  -0.0305   0.1541   0.0250   0.1036   0.0000
   3 Na_a:1s     0.0404  -0.1162  -0.0315   0.6325  -0.0512   0.3629   0.0000
   4 Na_a:1s    -0.0237   0.0705  -0.0213  -0.0641   0.0368  -0.0313   0.0000
   5 Na_a:1s    -0.2193  -0.1659   1.0143   1.3775   3.3717   5.0204  -0.0000
   7 Na_a:1s    -0.0337   0.0011  -0.0069   0.0732   0.0024   0.0537  -0.0000
   8 Na_a:1s    -0.0089  -0.3698   0.7561   1.1412   1.8702   2.0485  -0.0000
   9 Na_a:1s     0.0018  -0.0278  -1.1960  -0.9917  -0.4884  -0.9283   0.0000
  10 Na_a:2pz   -0.0797  -0.0154  -0.0011   0.1097   0.0447   0.0547   0.0000
  11 Na_a:2pz    0.0121   0.0705  -0.0360   0.2095   0.1315   0.1379   0.0000
  12 Na_a:2pz   -0.0911   0.2713   0.1100   0.6263   0.9949   1.6405  -0.0000
  13 Na_a:2pz   -0.0534   0.3153   0.3899   0.6254   3.1408   1.7437  -0.0000
  16 Na_a:2pz    0.0151   0.0649  -0.6719   0.6257  -3.0676  -1.3143   0.0000
  17 Na_a:2pz   -0.0033   0.0414   0.9216  -1.0939   1.7238   0.0006  -0.0000
  22 Na_a:3d0    0.0244   0.0010  -0.0092   0.0553   0.0093   0.0004   0.0000
  23 Na_a:3d2+  -0.0000   0.0000   0.0000   0.0000  -0.0000  -0.0000  -0.0186
  24 Na_a:3d0   -0.0331  -0.0056   0.0494   0.0646   0.1691   0.2215  -0.0000
  25 Na_a:3d2+   0.0000  -0.0000  -0.0000  -0.0000   0.0000   0.0000   0.0764
  26 Na_a:3d0   -0.0223  -0.0173   0.1415   0.1906   0.6646   0.4820  -0.0000
  27 Na_a:3d2+  -0.0000   0.0000   0.0000   0.0000  -0.0000  -0.0000  -0.2440
  28 Na_a:3d0    0.0019  -0.0461  -0.1831   0.5268   0.4196  -1.1569   0.0000
  29 Na_a:3d2+   0.0000  -0.0000  -0.0000  -0.0000   0.0000   0.0000   1.1228
  32 Na_a:4f0    0.0099   0.0013  -0.0022   0.0229   0.0132   0.0029   0.0000
  34 Na_a:4f0   -0.0090  -0.0014   0.0088  -0.0164  -0.0064   0.0417  -0.0000
  35 Na_a:4f2+  -0.0000  -0.0000   0.0000   0.0000   0.0000  -0.0000   0.0420
  36 Na_a:4f0   -0.0043   0.0055   0.0231   0.0042   0.1068   0.0586  -0.0000
  37 Na_a:4f2+   0.0000   0.0000   0.0000  -0.0000  -0.0000   0.0000  -0.0957
  39 Cl_a:1s    -0.0102   0.0003  -0.0030   0.0043  -0.0044  -0.0103   0.0000
  40 Cl_a:1s    -0.0935   0.0364  -0.0221   0.0241   0.0114  -0.0282   0.0000
  41 Cl_a:1s     0.0040   0.0016   0.0023  -0.0031   0.0064   0.0108  -0.0000
  42 Cl_a:1s    -0.0061   0.0095   0.0143   0.0138   0.0566   0.0966  -0.0000
  45 Cl_a:1s     0.1532  -0.0383  -0.1931  -0.6084  -0.8842  -1.3042  -0.0000
  46 Cl_a:1s     0.1685  -0.2544  -0.7901  -2.3627  -4.7717  -5.3440   0.0000
  47 Cl_a:2pz    0.0102   0.0006  -0.0007  -0.0052  -0.0025  -0.0067   0.0000
  48 Cl_a:2pz   -0.8815  -0.0814   0.0271  -0.0291  -0.0576  -0.0400  -0.0000
  50 Cl_a:2pz   -0.0922  -0.0128   0.0080   0.1276   0.0645   0.1011   0.0000
  53 Cl_a:2pz   -0.0975   0.0146   0.0634   0.7010   0.5186   1.0317   0.0000
  54 Cl_a:2pz   -0.0150   0.0496   0.2612  -0.1670   0.4305   1.9273  -0.0000
  61 Cl_a:3d0    0.0135  -0.0006   0.0003   0.0010   0.0019  -0.0037  -0.0000
  63 Cl_a:3d0    0.0362   0.0014   0.0032  -0.0566  -0.0296  -0.0120  -0.0000
  64 Cl_a:3d2+   0.0000  -0.0000   0.0000  -0.0000  -0.0000   0.0000  -0.0139
  65 Cl_a:3d0    0.0046  -0.0011   0.0122  -0.1213   0.0104  -0.1494  -0.0000
  66 Cl_a:3d2+   0.0000   0.0000  -0.0000   0.0000   0.0000  -0.0000   0.0338
  73 Cl_a:4f0   -0.0075  -0.0012  -0.0032   0.0178  -0.0040   0.0068   0.0000

    Orbital        15       16       17       18
   1 Na_a:1s     0.0220  -0.0062  -0.0028  -0.0016
   2 Na_a:1s     0.4348  -0.1522  -0.0704  -0.0677
   3 Na_a:1s     1.8937  -0.4853  -0.5288  -0.3462
   4 Na_a:1s    -0.2152   0.0754   0.1324   0.1717
   5 Na_a:1s     3.7265   0.9533 -16.8881  -5.4223
   7 Na_a:1s     0.2112  -0.1161  -0.0622  -0.1140
   8 Na_a:1s     2.5440  -0.1958  -1.9314  -2.6925
   9 Na_a:1s    -0.5538   0.0731   0.5595   0.2507
  10 Na_a:2pz    0.3162  -0.0466  -0.1233  -0.2801
  11 Na_a:2pz    0.5954  -0.1127  -0.1503  -0.4861
  12 Na_a:2pz    1.6743  -1.1830  -3.7983  -2.2593
  13 Na_a:2pz    1.7516   3.3425  -6.4738  -6.0495
  15 Na_a:2pz    0.0115  -0.0041  -0.0004  -0.0081
  16 Na_a:2pz    2.1241  -2.9953   3.2782  -0.4767
  17 Na_a:2pz   -0.8520   1.0727  -0.6106  -0.1039
  22 Na_a:3d0    0.1532  -0.0881   0.0169  -0.2031
  24 Na_a:3d0    0.1431  -0.0885  -0.7264  -0.4548
  26 Na_a:3d0    0.3771  -0.6187  -2.1159  -2.8290
  28 Na_a:3d0    1.0961   0.3783   0.9017  -0.8580
  32 Na_a:4f0    0.0704  -0.0010   0.0113  -0.1010
  34 Na_a:4f0   -0.0631  -0.0862  -0.1488   0.0446
  36 Na_a:4f0    0.0471   0.1490  -0.0955  -0.4435
  39 Cl_a:1s     0.0116  -0.0096   0.0312  -0.0212
  40 Cl_a:1s     0.0014  -0.0846   0.1004  -0.0766
  41 Cl_a:1s    -0.0124   0.0050  -0.0317   0.0162
  42 Cl_a:1s     0.0183   0.0240  -0.2599   0.0342
  44 Cl_a:1s     0.0097  -0.0056   0.0255  -0.0146
  45 Cl_a:1s    -1.6929   0.7434   3.5647   3.2904
  46 Cl_a:1s    -6.6900  -0.8197  16.4420   9.0688
  47 Cl_a:2pz   -0.0148   0.0099   0.0153   0.0213
  48 Cl_a:2pz   -0.0559   0.1153   0.0285   0.0445
  49 Cl_a:2pz    0.0200  -0.0139  -0.0224  -0.0291
  50 Cl_a:2pz    0.3725  -0.1562  -0.2283  -0.5698
  53 Cl_a:2pz    1.9903  -0.2803  -2.6121  -0.7680
  54 Cl_a:2pz   -0.8836   0.1483  -3.9664   3.8067
  61 Cl_a:3d0    0.0027   0.0039  -0.0027  -0.0110
  63 Cl_a:3d0   -0.1738   0.0252   0.0227   0.2612
  65 Cl_a:3d0   -0.3248   0.0697   0.2402  -0.4250
  71 Cl_a:4f0    0.0021   0.0002  -0.0024  -0.0305
  73 Cl_a:4f0    0.0502  -0.0074  -0.0023   0.0209

 Molecular orbitals for symmetry species 2  (B1 )
 ------------------------------------------------

    Orbital         1        2        3        4        5        6        7
   1 Na_a:2px    0.0012   0.9950  -0.0133  -0.0005  -0.0287  -0.0108  -0.0123
   2 Na_a:2px    0.0022  -0.0077   0.0302  -0.0205  -0.0190   0.0031  -0.1054
   3 Na_a:2px    0.0022   0.0106  -0.0301  -0.0311   0.2875  -0.1683   0.8142
   4 Na_a:2px   -0.0009  -0.0035   0.0108  -0.0167  -0.7669   1.1269  -2.2860
   7 Na_a:2px    0.0004   0.0017   0.0006   0.5974   2.0654   1.7195   3.3193
   8 Na_a:2px   -0.0001  -0.0006   0.0003  -1.2083  -1.6518  -0.5900  -1.3122
  11 Na_a:3d1+   0.0010  -0.0108   0.0269   0.0030  -0.0116  -0.0046   0.0074
  12 Na_a:3d1+   0.0022   0.0066  -0.0202  -0.0035   0.0018  -0.0982   0.2219
  13 Na_a:3d1+  -0.0002   0.0012  -0.0029   0.0584  -0.1310  -0.0304   0.7301
  14 Na_a:3d1+   0.0000  -0.0003   0.0030   0.4497  -0.4926   1.5724  -0.1824
  17 Na_a:4f1+   0.0003  -0.0037   0.0120   0.0003  -0.0024   0.0024  -0.0055
  19 Na_a:4f1+   0.0012   0.0014  -0.0135  -0.0069   0.0105  -0.0491   0.0558
  21 Na_a:4f1+  -0.0003   0.0013   0.0015  -0.0055   0.0057   0.0079   0.0392
  23 Cl_a:2px   -0.9991  -0.0004  -0.0056   0.0008   0.0018   0.0014   0.0040
  24 Cl_a:2px    0.0043   0.0011   0.9062   0.0207  -0.0209  -0.0304   0.0633
  26 Cl_a:2px   -0.0046   0.0051   0.0658  -0.0022  -0.0177  -0.0050  -0.0318
  29 Cl_a:2px   -0.0012  -0.0077   0.0851   0.0686  -0.0263   0.2810  -0.5475
  30 Cl_a:2px    0.0000   0.0008  -0.0118  -0.4155   0.2793  -2.1470  -0.4359
  34 Cl_a:3d1+  -0.0004  -0.0004  -0.0109   0.0024  -0.0010   0.0082   0.0043
  35 Cl_a:3d1+   0.0018  -0.0057  -0.0129  -0.0067  -0.0050  -0.0368   0.0005
  36 Cl_a:3d1+   0.0013   0.0025  -0.0172  -0.0012   0.0254  -0.0175   0.2402
  43 Cl_a:4f1+  -0.0009   0.0027  -0.0002   0.0023   0.0018   0.0104  -0.0180

    Orbital         8        9       10       11       12       13
   1 Na_a:2px    0.0366   0.1039   0.1442   0.0000  -0.0782  -0.2114
   2 Na_a:2px    0.0697   0.2280   0.1061   0.0000  -0.1192  -0.3290
   3 Na_a:2px    0.4609   2.1583  -3.9092   0.0000  -3.6299  -4.7025
   4 Na_a:2px    3.6642   2.2162   3.5986   0.0000  -3.3881   0.4443
   5 Na_a:2px    0.0023   0.0053   0.0104   0.0000  -0.0031  -0.0089
   6 Na_a:2px   -0.0019  -0.0026  -0.0129  -0.0000  -0.0000   0.0002
   7 Na_a:2px    1.7294  -0.5112  -2.3724  -0.0000  -0.2007   0.6289
   8 Na_a:2px   -0.2858   0.2285   0.7818   0.0000  -0.0238  -0.1392
  11 Na_a:3d1+  -0.0012   0.0141   0.0560   0.0000   0.0847   0.0056
  12 Na_a:3d1+   0.1110   0.6591  -0.3858   0.0000  -1.2238  -1.7078
  13 Na_a:3d1+   1.2935   2.6661  -0.7782   0.0000  -3.5859  -1.6944
  14 Na_a:3d1+   1.3141  -0.3986   0.2531  -0.0000  -0.2088   0.6553
  17 Na_a:4f1+   0.0215  -0.0230   0.0146   0.0000  -0.1766   0.1000
  18 Na_a:4f3+   0.0000  -0.0000  -0.0000   0.1729   0.0000   0.0000
  19 Na_a:4f1+  -0.1054   0.2204  -0.1582  -0.0000   0.4468  -1.0228
  20 Na_a:4f3+  -0.0000   0.0000   0.0000  -0.6236  -0.0000  -0.0000
  21 Na_a:4f1+   0.3735   0.1974  -0.2737   0.0000  -2.7306  -0.0604
  22 Na_a:4f3+   0.0000  -0.0000  -0.0000   1.3843   0.0000   0.0000
  23 Cl_a:2px    0.0012  -0.0068  -0.0104   0.0000   0.0108   0.0125
  24 Cl_a:2px    0.0558  -0.1087   0.0276  -0.0000   0.0462  -0.2153
  25 Cl_a:2px   -0.0014   0.0098   0.0169   0.0000  -0.0166  -0.0258
  26 Cl_a:2px    0.0212   0.0141   0.1138   0.0000  -0.1043  -0.0848
  29 Cl_a:2px   -0.6788  -3.1557   1.8950  -0.0000   6.0183   6.4644
  30 Cl_a:2px   -5.8506  -1.5315  -0.2771  -0.0000   3.0473  -1.4116
  33 Cl_a:3d1+  -0.0059  -0.0007   0.0054   0.0000  -0.0033  -0.0137
  34 Cl_a:3d1+   0.0210  -0.0109   0.0087  -0.0000  -0.0093   0.0499
  35 Cl_a:3d1+  -0.0894   0.0416   0.0162   0.0000  -0.0598  -0.2433
  36 Cl_a:3d1+   0.4248   0.9396  -0.7161   0.0000  -1.1785  -2.0182
  39 Cl_a:4f1+  -0.0015  -0.0079   0.0050   0.0000   0.0035   0.0182
  41 Cl_a:4f1+   0.0064   0.0324  -0.0221   0.0000  -0.0130  -0.0784
  42 Cl_a:4f3+  -0.0000  -0.0000  -0.0000   0.0131   0.0000   0.0000
  43 Cl_a:4f1+  -0.0250  -0.1057   0.0441  -0.0000   0.1068   0.2315
  44 Cl_a:4f3+   0.0000   0.0000   0.0000  -0.0245   0.0000   0.0000

 Molecular orbitals for symmetry species 3  (B2 )
 ------------------------------------------------

    Orbital         1        2        3        4        5        6        7
   1 Na_a:2py    0.0012   0.9950  -0.0133  -0.0005  -0.0287  -0.0108  -0.0123
   2 Na_a:2py    0.0022  -0.0077   0.0302  -0.0205  -0.0190   0.0031  -0.1054
   3 Na_a:2py    0.0022   0.0106  -0.0301  -0.0311   0.2875  -0.1683   0.8142
   4 Na_a:2py   -0.0009  -0.0035   0.0108  -0.0167  -0.7669   1.1269  -2.2860
   7 Na_a:2py    0.0004   0.0017   0.0006   0.5974   2.0654   1.7195   3.3193
   8 Na_a:2py   -0.0001  -0.0006   0.0003  -1.2083  -1.6518  -0.5900  -1.3122
  11 Na_a:3d1-   0.0010  -0.0108   0.0269   0.0030  -0.0116  -0.0046   0.0074
  12 Na_a:3d1-   0.0022   0.0066  -0.0202  -0.0035   0.0018  -0.0982   0.2219
  13 Na_a:3d1-  -0.0002   0.0012  -0.0029   0.0584  -0.1310  -0.0304   0.7301
  14 Na_a:3d1-   0.0000  -0.0003   0.0030   0.4497  -0.4926   1.5724  -0.1824
  18 Na_a:4f1-   0.0003  -0.0037   0.0120   0.0003  -0.0024   0.0024  -0.0055
  20 Na_a:4f1-   0.0012   0.0014  -0.0135  -0.0069   0.0105  -0.0491   0.0558
  22 Na_a:4f1-  -0.0003   0.0013   0.0015  -0.0055   0.0057   0.0079   0.0392
  23 Cl_a:2py   -0.9991  -0.0004  -0.0056   0.0008   0.0018   0.0014   0.0040
  24 Cl_a:2py    0.0043   0.0011   0.9062   0.0207  -0.0209  -0.0304   0.0633
  26 Cl_a:2py   -0.0046   0.0051   0.0658  -0.0022  -0.0177  -0.0050  -0.0318
  29 Cl_a:2py   -0.0012  -0.0077   0.0851   0.0686  -0.0263   0.2810  -0.5475
  30 Cl_a:2py    0.0000   0.0008  -0.0118  -0.4155   0.2793  -2.1470  -0.4359
  34 Cl_a:3d1-  -0.0004  -0.0004  -0.0109   0.0024  -0.0010   0.0082   0.0043
  35 Cl_a:3d1-   0.0018  -0.0057  -0.0129  -0.0067  -0.0050  -0.0368   0.0005
  36 Cl_a:3d1-   0.0013   0.0025  -0.0172  -0.0012   0.0254  -0.0175   0.2402
  44 Cl_a:4f1-  -0.0009   0.0027  -0.0002   0.0023   0.0018   0.0104  -0.0180

    Orbital         8        9       10       11       12       13
   1 Na_a:2py    0.0366   0.1039   0.1442  -0.0000  -0.0782  -0.2114
   2 Na_a:2py    0.0697   0.2280   0.1061  -0.0000  -0.1192  -0.3290
   3 Na_a:2py    0.4609   2.1583  -3.9092  -0.0000  -3.6299  -4.7025
   4 Na_a:2py    3.6642   2.2162   3.5986  -0.0000  -3.3881   0.4443
   5 Na_a:2py    0.0023   0.0053   0.0104  -0.0000  -0.0031  -0.0089
   6 Na_a:2py   -0.0019  -0.0026  -0.0129   0.0000  -0.0000   0.0002
   7 Na_a:2py    1.7294  -0.5112  -2.3724   0.0000  -0.2007   0.6289
   8 Na_a:2py   -0.2858   0.2285   0.7818  -0.0000  -0.0238  -0.1392
  11 Na_a:3d1-  -0.0012   0.0141   0.0560  -0.0000   0.0847   0.0056
  12 Na_a:3d1-   0.1110   0.6591  -0.3858  -0.0000  -1.2238  -1.7078
  13 Na_a:3d1-   1.2935   2.6661  -0.7782  -0.0000  -3.5859  -1.6944
  14 Na_a:3d1-   1.3141  -0.3986   0.2531   0.0000  -0.2088   0.6553
  17 Na_a:4f3-  -0.0000   0.0000   0.0000   0.1729  -0.0000  -0.0000
  18 Na_a:4f1-   0.0215  -0.0230   0.0146  -0.0000  -0.1766   0.1000
  19 Na_a:4f3-   0.0000  -0.0000  -0.0000  -0.6236   0.0000   0.0000
  20 Na_a:4f1-  -0.1054   0.2204  -0.1582   0.0000   0.4468  -1.0228
  21 Na_a:4f3-  -0.0000   0.0000   0.0000   1.3843  -0.0000  -0.0000
  22 Na_a:4f1-   0.3735   0.1974  -0.2737  -0.0000  -2.7306  -0.0604
  23 Cl_a:2py    0.0012  -0.0068  -0.0104  -0.0000   0.0108   0.0125
  24 Cl_a:2py    0.0558  -0.1087   0.0276   0.0000   0.0462  -0.2153
  25 Cl_a:2py   -0.0014   0.0098   0.0169  -0.0000  -0.0166  -0.0258
  26 Cl_a:2py    0.0212   0.0141   0.1138  -0.0000  -0.1043  -0.0848
  29 Cl_a:2py   -0.6788  -3.1557   1.8950   0.0000   6.0183   6.4644
  30 Cl_a:2py   -5.8506  -1.5315  -0.2771   0.0000   3.0473  -1.4116
  33 Cl_a:3d1-  -0.0059  -0.0007   0.0054  -0.0000  -0.0033  -0.0137
  34 Cl_a:3d1-   0.0210  -0.0109   0.0087   0.0000  -0.0093   0.0499
  35 Cl_a:3d1-  -0.0894   0.0416   0.0162  -0.0000  -0.0598  -0.2433
  36 Cl_a:3d1-   0.4248   0.9396  -0.7161  -0.0000  -1.1785  -2.0182
  40 Cl_a:4f1-  -0.0015  -0.0079   0.0050  -0.0000   0.0035   0.0182
  41 Cl_a:4f3-  -0.0000   0.0000   0.0000   0.0131  -0.0000  -0.0000
  42 Cl_a:4f1-   0.0064   0.0324  -0.0221  -0.0000  -0.0130  -0.0784
  43 Cl_a:4f3-  -0.0000  -0.0000  -0.0000  -0.0245  -0.0000  -0.0000
  44 Cl_a:4f1-  -0.0250  -0.1057   0.0441   0.0000   0.1068   0.2315

 Molecular orbitals for symmetry species 4  (A2 )
 ------------------------------------------------

    Orbital         1        2        3        4        5        6        7
   2 Na_a:3d2-   0.0004   0.0013  -0.0001  -0.0085   0.0046   0.0020   0.0238
   3 Na_a:3d2-  -0.0186   0.0936  -0.0046   0.1818  -0.1877   0.0174   1.3379
   4 Na_a:3d2-   0.0764  -0.2258  -0.0312  -1.2031   1.3753   0.4258  -1.4941
   5 Na_a:3d2-  -0.2440   1.4274  -0.5830   1.2645   0.2819  -0.0746   0.7600
   6 Na_a:3d2-   1.1228  -0.7304   0.1702  -0.3898   0.0162   0.0300  -0.2132
   8 Na_a:4f2-  -0.0099  -0.0331  -0.1504  -0.0715  -0.0240  -0.3555  -0.1097
   9 Na_a:4f2-   0.0420   0.0949   0.5899   0.3563   0.0716   2.0957  -0.4237
  10 Na_a:4f2-  -0.0957  -0.2573  -1.6197   0.1006   0.9980  -1.0158   0.3272
  12 Cl_a:3d2-   0.0001   0.0004  -0.0008  -0.0030  -0.0038   0.0055   0.0133
  13 Cl_a:3d2-  -0.0002   0.0039  -0.0109  -0.0054  -0.0000   0.0259   0.1093
  14 Cl_a:3d2-   0.0045  -0.0036   0.0202  -0.0743  -0.1233   0.0728  -0.0535
  15 Cl_a:3d2-  -0.0139   0.0320  -0.1422   0.1826   0.3786  -0.1186   0.9744
  16 Cl_a:3d2-   0.0338  -0.0702   0.5929  -0.8226  -2.2507  -0.2914  -0.5518
  18 Cl_a:4f2-   0.0005   0.0001   0.0018   0.0038   0.0128   0.0174  -0.0114
  19 Cl_a:4f2-  -0.0022  -0.0015  -0.0062  -0.0097  -0.0573  -0.0842   0.0354
  20 Cl_a:4f2-   0.0052   0.0005   0.0089   0.0230   0.1557   0.2394  -0.1676

    Orbital         8        9       10
   2 Na_a:3d2-  -0.0199   0.0039  -0.0087
   3 Na_a:3d2-  -1.1080   0.4532  -0.4813
   4 Na_a:3d2-   1.1046   0.5377  -0.0704
   5 Na_a:3d2-   0.0082   0.0832   0.0056
   6 Na_a:3d2-   0.0442  -0.0085  -0.0007
   8 Na_a:4f2-   0.2956  -0.2849  -1.9588
   9 Na_a:4f2-  -0.7768   1.1226   1.4275
  10 Na_a:4f2-   0.7507  -0.2001  -0.5383
  12 Cl_a:3d2-   0.0193  -0.0035  -0.0005
  13 Cl_a:3d2-   0.1490  -0.0221   0.0137
  14 Cl_a:3d2-  -0.0413  -0.0112  -0.0925
  15 Cl_a:3d2-   1.2695  -0.1966   0.4838
  16 Cl_a:3d2-  -1.2257  -0.7026   0.0351
  18 Cl_a:4f2-   0.0171   0.1192  -0.0290
  19 Cl_a:4f2-  -0.0555  -0.4302   0.1544
  20 Cl_a:4f2-   0.1516   1.6127  -0.8207

  Total CPU  time used in SIRIUS :   6.76 seconds
  Total wall time used in SIRIUS :   6.77 seconds

 
     Date and time (Linux)  : Wed Jan 11 15:38:44 2023
     Host name              : cn020                                   


                     .---------------------------------------.
                     | End of Wave Function Section (SIRIUS) |
                     `---------------------------------------'



                 .------------------------------------------------.
                 | Starting in Dynamic Property Section (RESPONS) |
                 `------------------------------------------------'


 ----------------------------------------------------------------------------------------
  RESPONSE  -  an MCSCF, MC-srDFT, DFT, SOPPA and SOPPA-srDFT response property program
 ----------------------------------------------------------------------------------------


 -------- OUTPUT FROM RESPONSE INPUT PROCESSING --------




 Linear Response calculation
 ---------------------------

 Print level                                    : IPRLR  =   2
 Maximum number of iterations                   : MAXITL =  60
 Threshold for relative convergence             : THCLR  = 1.000D-03
 Maximum iterations in optimal orbital algorithm: MAXITO =   5

  9 B-frequencies  0.000000D+00  1.227675D-02  2.455350D-02  3.683025D-02  4.910700D-02
  6.138375D-02  7.366050D-02  8.593725D-02  9.821400D-02

    1 second order properties calculated with symmetry no.    1 and labels:

          ZDIPLEN 

    1 second order properties calculated with symmetry no.    2 and labels:

          XDIPLEN 

    1 second order properties calculated with symmetry no.    3 and labels:

          YDIPLEN 


   SCF energy         :     -621.455708832656910
 -- inactive part     :     -663.371742275823749
 -- nuclear repulsion :       41.916033443166796


                     ***************************************
                     *** RHF response calculation (TDHF) ***
                     ***************************************

 ----------------------------------------------------------------
 ----- Linear response calculation
 ----- Symmetry of excitation/property operator(s)    1  ( A1 )
 ----------------------------------------------------------------

 Number of excitations of this symmetry            0
 Number of response properties of this symmetry    1
 Number of C6/C8 properties of this symmetry       0


 Perturbation symmetry.     KSYMOP:           1
 Perturbation spin symmetry.TRPLET:           F
 Orbital variables.         KZWOPT:         774
 Configuration variables.   KZCONF:           0
 Total number of variables. KZVAR :         774


 RSPLR -- linear response calculation for symmetry 1  ( A1 )
 RSPLR -- operator label : ZDIPLEN 
 RSPLR -- operator spin  :   0
 RSPLR -- frequencies    :     0.000000  0.012277  0.024553  0.036830  0.049107
                               0.061384  0.073660  0.085937  0.098214



 ---  SOLVING SETS OF LINEAR EQUATIONS FOR LINEAR RESPONSE PROPERTIES ---

 Operator symmetry = 1  ( A1 ); triplet =   F


 ** RSPCTL MICROITERATION NUMBER    1

       No.  Residual tot.,    conf., and orb.    Bnorm      Frequency 
      ----------------------------------------------------------------
         1    2.51903D+00  0.00D+00  2.52D+00  5.38D+00    0.00000D+00
         2    2.52092D+00  0.00D+00  2.52D+00  5.40D+00    1.22767D-02
         3    2.52662D+00  0.00D+00  2.53D+00  5.44D+00    2.45535D-02
         4    2.53629D+00  0.00D+00  2.54D+00  5.52D+00    3.68302D-02
         5    2.55017D+00  0.00D+00  2.55D+00  5.64D+00    4.91070D-02
         6    2.56866D+00  0.00D+00  2.57D+00  5.79D+00    6.13838D-02
         7    2.59231D+00  0.00D+00  2.59D+00  5.98D+00    7.36605D-02
         8    2.62193D+00  0.00D+00  2.62D+00  6.23D+00    8.59372D-02
         9    2.65868D+00  0.00D+00  2.66D+00  6.54D+00    9.82140D-02

 ** RSPCTL MICROITERATION NUMBER    2

       No.  Residual tot.,    conf., and orb.    Bnorm      Frequency 
      ----------------------------------------------------------------
         1    7.93684D-01  0.00D+00  7.94D-01  5.75D+00    0.00000D+00
         2    7.95034D-01  0.00D+00  7.95D-01  5.77D+00    1.22767D-02
         3    7.99128D-01  0.00D+00  7.99D-01  5.82D+00    2.45535D-02
         4    8.06111D-01  0.00D+00  8.06D-01  5.91D+00    3.68302D-02
         5    8.16235D-01  0.00D+00  8.16D-01  6.04D+00    4.91070D-02
         6    8.29891D-01  0.00D+00  8.30D-01  6.21D+00    6.13838D-02
         7    8.47654D-01  0.00D+00  8.48D-01  6.44D+00    7.36605D-02
         8    8.70353D-01  0.00D+00  8.70D-01  6.72D+00    8.59372D-02
         9    8.99194D-01  0.00D+00  8.99D-01  7.09D+00    9.82140D-02

 ** RSPCTL MICROITERATION NUMBER    3

       No.  Residual tot.,    conf., and orb.    Bnorm      Frequency 
      ----------------------------------------------------------------
         1    1.64713D-01  0.00D+00  1.65D-01  5.79D+00    0.00000D+00
         2    1.65260D-01  0.00D+00  1.65D-01  5.81D+00    1.22767D-02
         3    1.66924D-01  0.00D+00  1.67D-01  5.86D+00    2.45535D-02
         4    1.69782D-01  0.00D+00  1.70D-01  5.95D+00    3.68302D-02
         5    1.73969D-01  0.00D+00  1.74D-01  6.08D+00    4.91070D-02
         6    1.79694D-01  0.00D+00  1.80D-01  6.26D+00    6.13838D-02
         7    1.87270D-01  0.00D+00  1.87D-01  6.49D+00    7.36605D-02
         8    1.97151D-01  0.00D+00  1.97D-01  6.79D+00    8.59372D-02
         9    2.10009D-01  0.00D+00  2.10D-01  7.16D+00    9.82140D-02

 ** RSPCTL MICROITERATION NUMBER    4

       No.  Residual tot.,    conf., and orb.    Bnorm      Frequency 
      ----------------------------------------------------------------
         1    3.08933D-02  0.00D+00  3.09D-02  5.79D+00    0.00000D+00
         2    3.10514D-02  0.00D+00  3.11D-02  5.81D+00    1.22767D-02
         3    3.15336D-02  0.00D+00  3.15D-02  5.86D+00    2.45535D-02
         4    3.23639D-02  0.00D+00  3.24D-02  5.95D+00    3.68302D-02
         5    3.35853D-02  0.00D+00  3.36D-02  6.08D+00    4.91070D-02
         6    3.52647D-02  0.00D+00  3.53D-02  6.26D+00    6.13838D-02
         7    3.75014D-02  0.00D+00  3.75D-02  6.49D+00    7.36605D-02
         8    4.04413D-02  0.00D+00  4.04D-02  6.79D+00    8.59372D-02
         9    4.43000D-02  0.00D+00  4.43D-02  7.16D+00    9.82140D-02

 ** RSPCTL MICROITERATION NUMBER    5

       No.  Residual tot.,    conf., and orb.    Bnorm      Frequency 
      ----------------------------------------------------------------
         1    3.59150D-03  0.00D+00  3.59D-03  5.79D+00    0.00000D+00
         2    3.61120D-03  0.00D+00  3.61D-03  5.81D+00    1.22767D-02
         3    3.67127D-03  0.00D+00  3.67D-03  5.86D+00    2.45535D-02
         4    3.77470D-03  0.00D+00  3.77D-03  5.95D+00    3.68302D-02
         5    3.92682D-03  0.00D+00  3.93D-03  6.08D+00    4.91070D-02
         6    4.13598D-03  0.00D+00  4.14D-03  6.26D+00    6.13838D-02
         7    4.41456D-03  0.00D+00  4.41D-03  6.49D+00    7.36605D-02
         8    4.78079D-03  0.00D+00  4.78D-03  6.79D+00    8.59372D-02
         9    5.26170D-03  0.00D+00  5.26D-03  7.16D+00    9.82140D-02

 *** THE REQUESTED    9 SOLUTION VECTORS CONVERGED

 Convergence of RSP solution vectors, threshold = 1.00D-03
 ---------------------------------------------------------------
 (dimension of paired reduced space:   90)
 RSP solution vector no.    1; norm of residual   6.20D-04
 RSP solution vector no.    2; norm of residual   6.22D-04
 RSP solution vector no.    3; norm of residual   6.27D-04
 RSP solution vector no.    4; norm of residual   6.34D-04
 RSP solution vector no.    5; norm of residual   6.46D-04
 RSP solution vector no.    6; norm of residual   6.61D-04
 RSP solution vector no.    7; norm of residual   6.80D-04
 RSP solution vector no.    8; norm of residual   7.04D-04
 RSP solution vector no.    9; norm of residual   7.34D-04

 *** RSPCTL MICROITERATIONS CONVERGED


           Final output of second order properties from linear response
           ------------------------------------------------------------


@ Spin symmetry of operators: singlet

 Note that minus the linear response function: - << A; B >>(omega) is printed.
 The results are of quadratic accuracy using Sellers formula.

@ FREQUENCY INDEPENDENT SECOND ORDER PROPERTIES

@ -<< ZDIPLEN  ; ZDIPLEN  >> =  2.852448093544E+01

@ FREQUENCY DEPENDENT SECOND ORDER PROPERTIES WITH FREQUENCY :

@    a.u.:  1.2276750D-02
@    cm-1:  2.6944352D+03
@    eV  :  3.3406736D-01
@  kJ/mol:  3.2232602D+01
@    nm  :  3.7113530D+03

@ -<< ZDIPLEN  ; ZDIPLEN  >> =  2.856212350713E+01

@ FREQUENCY DEPENDENT SECOND ORDER PROPERTIES WITH FREQUENCY :

@    a.u.:  2.4553500D-02
@    cm-1:  5.3888703D+03
@    eV  :  6.6813472D-01
@  kJ/mol:  6.4465204D+01
@    nm  :  1.8556765D+03

@ -<< ZDIPLEN  ; ZDIPLEN  >> =  2.867606794132E+01

@ FREQUENCY DEPENDENT SECOND ORDER PROPERTIES WITH FREQUENCY :

@    a.u.:  3.6830250D-02
@    cm-1:  8.0833055D+03
@    eV  :  1.0022021D+00
@  kJ/mol:  9.6697806D+01
@    nm  :  1.2371177D+03

@ -<< ZDIPLEN  ; ZDIPLEN  >> =  2.886944996353E+01

@ FREQUENCY DEPENDENT SECOND ORDER PROPERTIES WITH FREQUENCY :

@    a.u.:  4.9107000D-02
@    cm-1:  1.0777741D+04
@    eV  :  1.3362694D+00
@  kJ/mol:  1.2893041D+02
@    nm  :  9.2783825D+02

@ -<< ZDIPLEN  ; ZDIPLEN  >> =  2.914779595558E+01

@ FREQUENCY DEPENDENT SECOND ORDER PROPERTIES WITH FREQUENCY :

@    a.u.:  6.1383750D-02
@    cm-1:  1.3472176D+04
@    eV  :  1.6703368D+00
@  kJ/mol:  1.6116301D+02
@    nm  :  7.4227060D+02

@ -<< ZDIPLEN  ; ZDIPLEN  >> =  2.951953001873E+01

@ FREQUENCY DEPENDENT SECOND ORDER PROPERTIES WITH FREQUENCY :

@    a.u.:  7.3660500D-02
@    cm-1:  1.6166611D+04
@    eV  :  2.0044042D+00
@  kJ/mol:  1.9339561D+02
@    nm  :  6.1855883D+02

@ -<< ZDIPLEN  ; ZDIPLEN  >> =  2.999681575560E+01

@ FREQUENCY DEPENDENT SECOND ORDER PROPERTIES WITH FREQUENCY :

@    a.u.:  8.5937250D-02
@    cm-1:  1.8861046D+04
@    eV  :  2.3384715D+00
@  kJ/mol:  2.2562822D+02
@    nm  :  5.3019329D+02

@ -<< ZDIPLEN  ; ZDIPLEN  >> =  3.059691648248E+01

@ FREQUENCY DEPENDENT SECOND ORDER PROPERTIES WITH FREQUENCY :

@    a.u.:  9.8214000D-02
@    cm-1:  2.1555481D+04
@    eV  :  2.6725389D+00
@  kJ/mol:  2.5786082D+02
@    nm  :  4.6391913D+02

@ -<< ZDIPLEN  ; ZDIPLEN  >> =  3.134441436908E+01


 Time used in linear response calculation is      6.99 CPU seconds for symmetry 1
 ----------------------------------------------------------------
 ----- Linear response calculation
 ----- Symmetry of excitation/property operator(s)    2  ( B1 )
 ----------------------------------------------------------------

 Number of excitations of this symmetry            0
 Number of response properties of this symmetry    1
 Number of C6/C8 properties of this symmetry       0


 Perturbation symmetry.     KSYMOP:           2
 Perturbation spin symmetry.TRPLET:           F
 Orbital variables.         KZWOPT:         586
 Configuration variables.   KZCONF:           0
 Total number of variables. KZVAR :         586


 RSPLR -- linear response calculation for symmetry 2  ( B1 )
 RSPLR -- operator label : XDIPLEN 
 RSPLR -- operator spin  :   0
 RSPLR -- frequencies    :     0.000000  0.012277  0.024553  0.036830  0.049107
                               0.061384  0.073660  0.085937  0.098214



 ---  SOLVING SETS OF LINEAR EQUATIONS FOR LINEAR RESPONSE PROPERTIES ---

 Operator symmetry = 2  ( B1 ); triplet =   F


 ** RSPCTL MICROITERATION NUMBER    1

       No.  Residual tot.,    conf., and orb.    Bnorm      Frequency 
      ----------------------------------------------------------------
         1    1.75893D+00  0.00D+00  1.76D+00  5.14D+00    0.00000D+00
         2    1.75981D+00  0.00D+00  1.76D+00  5.16D+00    1.22767D-02
         3    1.76247D+00  0.00D+00  1.76D+00  5.20D+00    2.45535D-02
         4    1.76697D+00  0.00D+00  1.77D+00  5.26D+00    3.68302D-02
         5    1.77339D+00  0.00D+00  1.77D+00  5.36D+00    4.91070D-02
         6    1.78189D+00  0.00D+00  1.78D+00  5.49D+00    6.13838D-02
         7    1.79267D+00  0.00D+00  1.79D+00  5.65D+00    7.36605D-02
         8    1.80604D+00  0.00D+00  1.81D+00  5.86D+00    8.59372D-02
         9    1.82245D+00  0.00D+00  1.82D+00  6.12D+00    9.82140D-02

 ** RSPCTL MICROITERATION NUMBER    2

       No.  Residual tot.,    conf., and orb.    Bnorm      Frequency 
      ----------------------------------------------------------------
         1    4.62769D-01  0.00D+00  4.63D-01  5.40D+00    0.00000D+00
         2    4.62908D-01  0.00D+00  4.63D-01  5.42D+00    1.22767D-02
         3    4.63324D-01  0.00D+00  4.63D-01  5.46D+00    2.45535D-02
         4    4.64018D-01  0.00D+00  4.64D-01  5.54D+00    3.68302D-02
         5    4.64988D-01  0.00D+00  4.65D-01  5.65D+00    4.91070D-02
         6    4.66236D-01  0.00D+00  4.66D-01  5.80D+00    6.13838D-02
         7    4.67769D-01  0.00D+00  4.68D-01  5.99D+00    7.36605D-02
         8    4.69605D-01  0.00D+00  4.70D-01  6.24D+00    8.59372D-02
         9    4.71797D-01  0.00D+00  4.72D-01  6.56D+00    9.82140D-02

 ** RSPCTL MICROITERATION NUMBER    3

       No.  Residual tot.,    conf., and orb.    Bnorm      Frequency 
      ----------------------------------------------------------------
         1    4.55745D-02  0.00D+00  4.56D-02  5.41D+00    0.00000D+00
         2    4.55796D-02  0.00D+00  4.56D-02  5.42D+00    1.22767D-02
         3    4.55964D-02  0.00D+00  4.56D-02  5.47D+00    2.45535D-02
         4    4.56295D-02  0.00D+00  4.56D-02  5.54D+00    3.68302D-02
         5    4.56885D-02  0.00D+00  4.57D-02  5.66D+00    4.91070D-02
         6    4.57909D-02  0.00D+00  4.58D-02  5.81D+00    6.13838D-02
         7    4.59682D-02  0.00D+00  4.60D-02  6.00D+00    7.36605D-02
         8    4.62780D-02  0.00D+00  4.63D-02  6.25D+00    8.59372D-02
         9    4.68267D-02  0.00D+00  4.68D-02  6.58D+00    9.82140D-02

 ** RSPCTL MICROITERATION NUMBER    4

       No.  Residual tot.,    conf., and orb.    Bnorm      Frequency 
      ----------------------------------------------------------------
         1    6.48404D-03  0.00D+00  6.48D-03  5.41D+00    0.00000D+00
         2    6.51212D-03  0.00D+00  6.51D-03  5.42D+00    1.22767D-02
         3    6.59862D-03  0.00D+00  6.60D-03  5.47D+00    2.45535D-02
         4    6.75064D-03  0.00D+00  6.75D-03  5.54D+00    3.68302D-02
         5    6.98109D-03  0.00D+00  6.98D-03  5.66D+00    4.91070D-02
         6    7.31064D-03  0.00D+00  7.31D-03  5.81D+00    6.13838D-02
         7    7.77095D-03  0.00D+00  7.77D-03  6.00D+00    7.36605D-02
         8    8.41015D-03  0.00D+00  8.41D-03  6.25D+00    8.59372D-02
         9    9.30220D-03  0.00D+00  9.30D-03  6.58D+00    9.82140D-02

 ** RSPCTL MICROITERATION NUMBER    5

       No.  Residual tot.,    conf., and orb.    Bnorm      Frequency 
      ----------------------------------------------------------------
         1    9.44273D-04  0.00D+00  9.44D-04  5.41D+00    0.00000D+00
         2    9.49966D-04  0.00D+00  9.50D-04  5.42D+00    1.22767D-02
         3    9.67487D-04  0.00D+00  9.67D-04  5.47D+00    2.45535D-02
         4    9.98221D-04  0.00D+00  9.98D-04  5.54D+00    3.68302D-02
         5    1.04468D-03  0.00D+00  1.04D-03  5.66D+00    4.91070D-02
         6    1.11086D-03  0.00D+00  1.11D-03  5.81D+00    6.13838D-02
         7    1.20286D-03  0.00D+00  1.20D-03  6.00D+00    7.36605D-02
         8    1.32995D-03  0.00D+00  1.33D-03  6.25D+00    8.59372D-02
         9    1.50639D-03  0.00D+00  1.51D-03  6.58D+00    9.82140D-02

 *** THE REQUESTED    9 SOLUTION VECTORS CONVERGED

 Convergence of RSP solution vectors, threshold = 1.00D-03
 ---------------------------------------------------------------
 (dimension of paired reduced space:   90)
 RSP solution vector no.    1; norm of residual   1.75D-04
 RSP solution vector no.    2; norm of residual   1.75D-04
 RSP solution vector no.    3; norm of residual   1.77D-04
 RSP solution vector no.    4; norm of residual   1.80D-04
 RSP solution vector no.    5; norm of residual   1.85D-04
 RSP solution vector no.    6; norm of residual   1.91D-04
 RSP solution vector no.    7; norm of residual   2.00D-04
 RSP solution vector no.    8; norm of residual   2.13D-04
 RSP solution vector no.    9; norm of residual   2.29D-04

 *** RSPCTL MICROITERATIONS CONVERGED


           Final output of second order properties from linear response
           ------------------------------------------------------------


@ Spin symmetry of operators: singlet

 Note that minus the linear response function: - << A; B >>(omega) is printed.
 The results are of quadratic accuracy using Sellers formula.

@ FREQUENCY INDEPENDENT SECOND ORDER PROPERTIES

@ -<< XDIPLEN  ; XDIPLEN  >> =  2.596842061162E+01

@ FREQUENCY DEPENDENT SECOND ORDER PROPERTIES WITH FREQUENCY :

@    a.u.:  1.2276750D-02
@    cm-1:  2.6944352D+03
@    eV  :  3.3406736D-01
@  kJ/mol:  3.2232602D+01
@    nm  :  3.7113530D+03

@ -<< XDIPLEN  ; XDIPLEN  >> =  2.599926612515E+01

@ FREQUENCY DEPENDENT SECOND ORDER PROPERTIES WITH FREQUENCY :

@    a.u.:  2.4553500D-02
@    cm-1:  5.3888703D+03
@    eV  :  6.6813472D-01
@  kJ/mol:  6.4465204D+01
@    nm  :  1.8556765D+03

@ -<< XDIPLEN  ; XDIPLEN  >> =  2.609258047064E+01

@ FREQUENCY DEPENDENT SECOND ORDER PROPERTIES WITH FREQUENCY :

@    a.u.:  3.6830250D-02
@    cm-1:  8.0833055D+03
@    eV  :  1.0022021D+00
@  kJ/mol:  9.6697806D+01
@    nm  :  1.2371177D+03

@ -<< XDIPLEN  ; XDIPLEN  >> =  2.625076422795E+01

@ FREQUENCY DEPENDENT SECOND ORDER PROPERTIES WITH FREQUENCY :

@    a.u.:  4.9107000D-02
@    cm-1:  1.0777741D+04
@    eV  :  1.3362694D+00
@  kJ/mol:  1.2893041D+02
@    nm  :  9.2783825D+02

@ -<< XDIPLEN  ; XDIPLEN  >> =  2.647805528005E+01

@ FREQUENCY DEPENDENT SECOND ORDER PROPERTIES WITH FREQUENCY :

@    a.u.:  6.1383750D-02
@    cm-1:  1.3472176D+04
@    eV  :  1.6703368D+00
@  kJ/mol:  1.6116301D+02
@    nm  :  7.4227060D+02

@ -<< XDIPLEN  ; XDIPLEN  >> =  2.678093438664E+01

@ FREQUENCY DEPENDENT SECOND ORDER PROPERTIES WITH FREQUENCY :

@    a.u.:  7.3660500D-02
@    cm-1:  1.6166611D+04
@    eV  :  2.0044042D+00
@  kJ/mol:  1.9339561D+02
@    nm  :  6.1855883D+02

@ -<< XDIPLEN  ; XDIPLEN  >> =  2.716881247463E+01

@ FREQUENCY DEPENDENT SECOND ORDER PROPERTIES WITH FREQUENCY :

@    a.u.:  8.5937250D-02
@    cm-1:  1.8861046D+04
@    eV  :  2.3384715D+00
@  kJ/mol:  2.2562822D+02
@    nm  :  5.3019329D+02

@ -<< XDIPLEN  ; XDIPLEN  >> =  2.765517535862E+01

@ FREQUENCY DEPENDENT SECOND ORDER PROPERTIES WITH FREQUENCY :

@    a.u.:  9.8214000D-02
@    cm-1:  2.1555481D+04
@    eV  :  2.6725389D+00
@  kJ/mol:  2.5786082D+02
@    nm  :  4.6391913D+02

@ -<< XDIPLEN  ; XDIPLEN  >> =  2.825953295289E+01


 Time used in linear response calculation is      7.11 CPU seconds for symmetry 2
 ----------------------------------------------------------------
 ----- Linear response calculation
 ----- Symmetry of excitation/property operator(s)    3  ( B2 )
 ----------------------------------------------------------------

 Number of excitations of this symmetry            0
 Number of response properties of this symmetry    1
 Number of C6/C8 properties of this symmetry       0


 Perturbation symmetry.     KSYMOP:           3
 Perturbation spin symmetry.TRPLET:           F
 Orbital variables.         KZWOPT:         586
 Configuration variables.   KZCONF:           0
 Total number of variables. KZVAR :         586


 RSPLR -- linear response calculation for symmetry 3  ( B2 )
 RSPLR -- operator label : YDIPLEN 
 RSPLR -- operator spin  :   0
 RSPLR -- frequencies    :     0.000000  0.012277  0.024553  0.036830  0.049107
                               0.061384  0.073660  0.085937  0.098214



 ---  SOLVING SETS OF LINEAR EQUATIONS FOR LINEAR RESPONSE PROPERTIES ---

 Operator symmetry = 3  ( B2 ); triplet =   F


 ** RSPCTL MICROITERATION NUMBER    1

       No.  Residual tot.,    conf., and orb.    Bnorm      Frequency 
      ----------------------------------------------------------------
         1    1.78812D+00  0.00D+00  1.79D+00  5.14D+00    0.00000D+00
         2    1.78899D+00  0.00D+00  1.79D+00  5.15D+00    1.22767D-02
         3    1.79162D+00  0.00D+00  1.79D+00  5.19D+00    2.45535D-02
         4    1.79605D+00  0.00D+00  1.80D+00  5.26D+00    3.68302D-02
         5    1.80237D+00  0.00D+00  1.80D+00  5.35D+00    4.91070D-02
         6    1.81071D+00  0.00D+00  1.81D+00  5.48D+00    6.13838D-02
         7    1.82128D+00  0.00D+00  1.82D+00  5.65D+00    7.36605D-02
         8    1.83434D+00  0.00D+00  1.83D+00  5.85D+00    8.59372D-02
         9    1.85033D+00  0.00D+00  1.85D+00  6.11D+00    9.82140D-02

 ** RSPCTL MICROITERATION NUMBER    2

       No.  Residual tot.,    conf., and orb.    Bnorm      Frequency 
      ----------------------------------------------------------------
         1    4.71693D-01  0.00D+00  4.72D-01  5.40D+00    0.00000D+00
         2    4.71832D-01  0.00D+00  4.72D-01  5.42D+00    1.22767D-02
         3    4.72246D-01  0.00D+00  4.72D-01  5.46D+00    2.45535D-02
         4    4.72936D-01  0.00D+00  4.73D-01  5.54D+00    3.68302D-02
         5    4.73897D-01  0.00D+00  4.74D-01  5.65D+00    4.91070D-02
         6    4.75129D-01  0.00D+00  4.75D-01  5.80D+00    6.13838D-02
         7    4.76632D-01  0.00D+00  4.77D-01  5.99D+00    7.36605D-02
         8    4.78419D-01  0.00D+00  4.78D-01  6.24D+00    8.59372D-02
         9    4.80529D-01  0.00D+00  4.81D-01  6.56D+00    9.82140D-02

 ** RSPCTL MICROITERATION NUMBER    3

       No.  Residual tot.,    conf., and orb.    Bnorm      Frequency 
      ----------------------------------------------------------------
         1    4.57165D-02  0.00D+00  4.57D-02  5.41D+00    0.00000D+00
         2    4.57112D-02  0.00D+00  4.57D-02  5.42D+00    1.22767D-02
         3    4.56955D-02  0.00D+00  4.57D-02  5.47D+00    2.45535D-02
         4    4.56706D-02  0.00D+00  4.57D-02  5.54D+00    3.68302D-02
         5    4.56391D-02  0.00D+00  4.56D-02  5.66D+00    4.91070D-02
         6    4.56073D-02  0.00D+00  4.56D-02  5.81D+00    6.13838D-02
         7    4.55890D-02  0.00D+00  4.56D-02  6.00D+00    7.36605D-02
         8    4.56132D-02  0.00D+00  4.56D-02  6.25D+00    8.59372D-02
         9    4.57401D-02  0.00D+00  4.57D-02  6.58D+00    9.82140D-02

 ** RSPCTL MICROITERATION NUMBER    4

       No.  Residual tot.,    conf., and orb.    Bnorm      Frequency 
      ----------------------------------------------------------------
         1    5.36943D-03  0.00D+00  5.37D-03  5.41D+00    0.00000D+00
         2    5.39140D-03  0.00D+00  5.39D-03  5.42D+00    1.22767D-02
         3    5.45958D-03  0.00D+00  5.46D-03  5.47D+00    2.45535D-02
         4    5.58118D-03  0.00D+00  5.58D-03  5.54D+00    3.68302D-02
         5    5.76944D-03  0.00D+00  5.77D-03  5.66D+00    4.91070D-02
         6    6.04568D-03  0.00D+00  6.05D-03  5.81D+00    6.13838D-02
         7    6.44280D-03  0.00D+00  6.44D-03  6.00D+00    7.36605D-02
         8    7.01095D-03  0.00D+00  7.01D-03  6.25D+00    8.59372D-02
         9    7.82699D-03  0.00D+00  7.83D-03  6.58D+00    9.82140D-02

 ** RSPCTL MICROITERATION NUMBER    5

       No.  Residual tot.,    conf., and orb.    Bnorm      Frequency 
      ----------------------------------------------------------------
         1    7.57063D-04  0.00D+00  7.57D-04  5.41D+00    0.00000D+00
         2    7.63022D-04  0.00D+00  7.63D-04  5.42D+00    1.22767D-02
         3    7.81428D-04  0.00D+00  7.81D-04  5.47D+00    2.45535D-02
         4    8.13936D-04  0.00D+00  8.14D-04  5.54D+00    3.68302D-02
         5    8.63542D-04  0.00D+00  8.64D-04  5.66D+00    4.91070D-02
         6    9.34989D-04  0.00D+00  9.35D-04  5.81D+00    6.13838D-02
         7    1.03548D-03  0.00D+00  1.04D-03  6.00D+00    7.36605D-02
         8    1.17594D-03  0.00D+00  1.18D-03  6.25D+00    8.59372D-02
         9    1.37319D-03  0.00D+00  1.37D-03  6.58D+00    9.82140D-02

 *** THE REQUESTED    9 SOLUTION VECTORS CONVERGED

 Convergence of RSP solution vectors, threshold = 1.00D-03
 ---------------------------------------------------------------
 (dimension of paired reduced space:   84)
 RSP solution vector no.    1; norm of residual   1.40D-04
 RSP solution vector no.    2; norm of residual   1.41D-04
 RSP solution vector no.    3; norm of residual   1.43D-04
 RSP solution vector no.    4; norm of residual   1.47D-04
 RSP solution vector no.    5; norm of residual   1.53D-04
 RSP solution vector no.    6; norm of residual   1.61D-04
 RSP solution vector no.    7; norm of residual   1.73D-04
 RSP solution vector no.    8; norm of residual   1.88D-04
 RSP solution vector no.    9; norm of residual   2.09D-04

 *** RSPCTL MICROITERATIONS CONVERGED


           Final output of second order properties from linear response
           ------------------------------------------------------------


@ Spin symmetry of operators: singlet

 Note that minus the linear response function: - << A; B >>(omega) is printed.
 The results are of quadratic accuracy using Sellers formula.

@ FREQUENCY INDEPENDENT SECOND ORDER PROPERTIES

@ -<< YDIPLEN  ; YDIPLEN  >> =  2.596842063172E+01

@ FREQUENCY DEPENDENT SECOND ORDER PROPERTIES WITH FREQUENCY :

@    a.u.:  1.2276750D-02
@    cm-1:  2.6944352D+03
@    eV  :  3.3406736D-01
@  kJ/mol:  3.2232602D+01
@    nm  :  3.7113530D+03

@ -<< YDIPLEN  ; YDIPLEN  >> =  2.599926614521E+01

@ FREQUENCY DEPENDENT SECOND ORDER PROPERTIES WITH FREQUENCY :

@    a.u.:  2.4553500D-02
@    cm-1:  5.3888703D+03
@    eV  :  6.6813472D-01
@  kJ/mol:  6.4465204D+01
@    nm  :  1.8556765D+03

@ -<< YDIPLEN  ; YDIPLEN  >> =  2.609258049058E+01

@ FREQUENCY DEPENDENT SECOND ORDER PROPERTIES WITH FREQUENCY :

@    a.u.:  3.6830250D-02
@    cm-1:  8.0833055D+03
@    eV  :  1.0022021D+00
@  kJ/mol:  9.6697806D+01
@    nm  :  1.2371177D+03

@ -<< YDIPLEN  ; YDIPLEN  >> =  2.625076424760E+01

@ FREQUENCY DEPENDENT SECOND ORDER PROPERTIES WITH FREQUENCY :

@    a.u.:  4.9107000D-02
@    cm-1:  1.0777741D+04
@    eV  :  1.3362694D+00
@  kJ/mol:  1.2893041D+02
@    nm  :  9.2783825D+02

@ -<< YDIPLEN  ; YDIPLEN  >> =  2.647805529910E+01

@ FREQUENCY DEPENDENT SECOND ORDER PROPERTIES WITH FREQUENCY :

@    a.u.:  6.1383750D-02
@    cm-1:  1.3472176D+04
@    eV  :  1.6703368D+00
@  kJ/mol:  1.6116301D+02
@    nm  :  7.4227060D+02

@ -<< YDIPLEN  ; YDIPLEN  >> =  2.678093440446E+01

@ FREQUENCY DEPENDENT SECOND ORDER PROPERTIES WITH FREQUENCY :

@    a.u.:  7.3660500D-02
@    cm-1:  1.6166611D+04
@    eV  :  2.0044042D+00
@  kJ/mol:  1.9339561D+02
@    nm  :  6.1855883D+02

@ -<< YDIPLEN  ; YDIPLEN  >> =  2.716881249002E+01

@ FREQUENCY DEPENDENT SECOND ORDER PROPERTIES WITH FREQUENCY :

@    a.u.:  8.5937250D-02
@    cm-1:  1.8861046D+04
@    eV  :  2.3384715D+00
@  kJ/mol:  2.2562822D+02
@    nm  :  5.3019329D+02

@ -<< YDIPLEN  ; YDIPLEN  >> =  2.765517536923E+01

@ FREQUENCY DEPENDENT SECOND ORDER PROPERTIES WITH FREQUENCY :

@    a.u.:  9.8214000D-02
@    cm-1:  2.1555481D+04
@    eV  :  2.6725389D+00
@  kJ/mol:  2.5786082D+02
@    nm  :  4.6391913D+02

@ -<< YDIPLEN  ; YDIPLEN  >> =  2.825953295402E+01


 Time used in linear response calculation is      6.79 CPU seconds for symmetry 3

  Total CPU  time used in RESPONSE:  20.90 seconds
  Total wall time used in RESPONSE:  20.93 seconds


                   .-------------------------------------------.
                   | End of Dynamic Property Section (RESPONS) |
                   `-------------------------------------------'

  Total CPU  time used in DALTON:  28.44 seconds
  Total wall time used in DALTON:  28.50 seconds

 
     Date and time (Linux)  : Wed Jan 11 15:39:05 2023
     Host name              : cn020                                   
