

     ************************************************************************
     *************** Dalton - An Electronic Structure Program ***************
     ************************************************************************

    This is output from DALTON release Dalton2020.0 (2020)
         ( Web site: http://daltonprogram.org )

   ----------------------------------------------------------------------------

    NOTE:
     
    Dalton is an experimental code for the evaluation of molecular
    properties using (MC)SCF, DFT, CI, and CC wave functions.
    The authors accept no responsibility for the performance of
    the code or for the correctness of the results.
     
    The code (in whole or part) is provided under a licence and
    is not to be reproduced for further distribution without
    the written permission of the authors or their representatives.
     
    See the home page "http://daltonprogram.org" for further information.
     
    If results obtained with this code are published,
    the appropriate citations would be both of:
     
       K. Aidas, C. Angeli, K. L. Bak, V. Bakken, R. Bast,
       L. Boman, O. Christiansen, R. Cimiraglia, S. Coriani,
       P. Dahle, E. K. Dalskov, U. Ekstroem,
       T. Enevoldsen, J. J. Eriksen, P. Ettenhuber, B. Fernandez,
       L. Ferrighi, H. Fliegl, L. Frediani, K. Hald, A. Halkier,
       C. Haettig, H. Heiberg, T. Helgaker, A. C. Hennum,
       H. Hettema, E. Hjertenaes, S. Hoest, I.-M. Hoeyvik,
       M. F. Iozzi, B. Jansik, H. J. Aa. Jensen, D. Jonsson,
       P. Joergensen, J. Kauczor, S. Kirpekar,
       T. Kjaergaard, W. Klopper, S. Knecht, R. Kobayashi, H. Koch,
       J. Kongsted, A. Krapp, K. Kristensen, A. Ligabue,
       O. B. Lutnaes, J. I. Melo, K. V. Mikkelsen, R. H. Myhre,
       C. Neiss, C. B. Nielsen, P. Norman, J. Olsen,
       J. M. H. Olsen, A. Osted, M. J. Packer, F. Pawlowski,
       T. B. Pedersen, P. F. Provasi, S. Reine, Z. Rinkevicius,
       T. A. Ruden, K. Ruud, V. Rybkin, P. Salek, C. C. M. Samson,
       A. Sanchez de Meras, T. Saue, S. P. A. Sauer,
       B. Schimmelpfennig, K. Sneskov, A. H. Steindal,
       K. O. Sylvester-Hvid, P. R. Taylor, A. M. Teale,
       E. I. Tellgren, D. P. Tew, A. J. Thorvaldsen, L. Thoegersen,
       O. Vahtras, M. A. Watson, D. J. D. Wilson, M. Ziolkowski
       and H. Agren,
       "The Dalton quantum chemistry program system",
       WIREs Comput. Mol. Sci. 2014, 4:269–284 (doi: 10.1002/wcms.1172)
     
    and
     
       Dalton, a molecular electronic structure program,
       Release Dalton2020.0 (2020), see http://daltonprogram.org
   ----------------------------------------------------------------------------

    Authors in alphabetical order (Major contribution(s) in parenthesis):

  Kestutis Aidas,           Vilnius University,           Lithuania   (QM/MM)
  Celestino Angeli,         University of Ferrara,        Italy       (NEVPT2)
  Keld L. Bak,              UNI-C,                        Denmark     (AOSOPPA, non-adiabatic coupling, magnetic properties)
  Vebjoern Bakken,          University of Oslo,           Norway      (DALTON; geometry optimizer, symmetry detection)
  Radovan Bast,             UiT The Arctic U. of Norway,  Norway      (DALTON installation and execution frameworks)
  Pablo Baudin,             University of Valencia,       Spain       (Cholesky excitation energies)
  Linus Boman,              NTNU,                         Norway      (Cholesky decomposition and subsystems)
  Bruno N. Cabral Tenorio,  Technical Univ. of Denmark,   Denmark     (Lanczos-based CC methods)
  Ove Christiansen,         Aarhus University,            Denmark     (CC module)
  Renzo Cimiraglia,         University of Ferrara,        Italy       (NEVPT2)
  Sonia Coriani,            Technical Univ. of Denmark,   Denmark     (CC and RESPONS modules)
  Janusz Cukras,            University of Warsaw,         Poland      (MChD in RESPONS)
  Paal Dahle,               University of Oslo,           Norway      (Parallelization)
  Erik K. Dalskov,          UNI-C,                        Denmark     (SOPPA)
  Thomas Enevoldsen,        Univ. of Southern Denmark,    Denmark     (SOPPA)
  Janus J. Eriksen,         Aarhus University,            Denmark     (Polarizable embedding, TDA)
  Rasmus Faber,             Technical Univ. of Denmark,   Denmark     (Vib.avg. NMR w. SOPPA, parallel AO-SOPPA, CVS-CC and EOMCC)
  Tobias Fahleson,          KTH Stockholm,                Sweden      (Damped cubic response)
  Berta Fernandez,          U. of Santiago de Compostela, Spain       (Doublet spin, ESR in RESPONS)
  Lara Ferrighi,            Aarhus University,            Denmark     (PCM Cubic response)
  Heike Fliegl,             University of Oslo,           Norway      (CCSD(R12))
  Luca Frediani,            UiT The Arctic U. of Norway,  Norway      (PCM)
  Emmanuel Fromager,        Univ. Strasbourg,             France      (MC-srDFT)
  Bin Gao,                  UiT The Arctic U. of Norway,  Norway      (Gen1Int library)
  Andre S. P. Gomes,        CNRS/Universite de Lille,     France      (Frozen density embedding)
  Christof Haettig,         Ruhr-University Bochum,       Germany     (CC module)
  Kasper Hald,              Aarhus University,            Denmark     (CC module)
  Asger Halkier,            Aarhus University,            Denmark     (CC module)
  Frederik Beyer Hansen,    University of Copenhagen,     Denmark     (Parallel AO-SOPPA)
  Erik D. Hedegaard,        Univ. of Southern Denmark,    Denmark     (Polarizable embedding, QM/MM, and MC-srDFT)
  Hanne Heiberg,            University of Oslo,           Norway      (Geometry analysis, selected one-electron integrals)
  Trygve Helgaker,          University of Oslo,           Norway      (DALTON; ABACUS, ERI, DFT modules, London, and much more)
  Alf Christian Hennum,     University of Oslo,           Norway      (Parity violation)
  Hinne Hettema,            University of Auckland,       New Zealand (Quadratic response in RESPONS; SIRIUS supersymmetry)
  Eirik Hjertenaes,         NTNU,                         Norway      (Cholesky decomposition)
  Pi A. B. Haase,           University of Copenhagen,     Denmark     (Triplet AO-SOPPA)
  Maria Francesca Iozzi,    University of Oslo,           Norway      (RPA)
  Christoph Jacob           TU Braunschweig               Germany     (Frozen density embedding)
  Brano Jansik              Technical Univ. of Ostrava    Czech Rep.  (DFT cubic response)
  Hans Joergen Aa. Jensen,  Univ. of Southern Denmark,    Denmark     (DALTON; SIRIUS, RESPONS, ABACUS, MC-srDFT, and much more)
  Dan Jonsson,              UiT The Arctic U. of Norway,  Norway      (Cubic response in RESPONS module)
  Poul Joergensen,          Aarhus University,            Denmark     (RESPONS, ABACUS, and CC modules)
  Maciej Kaminski,          University of Warsaw,         Poland      (CPPh in RESPONS)
  Joanna Kauczor,           Linkoeping University,        Sweden      (Complex polarization propagator (CPP) module)
  Sheela Kirpekar,          Univ. of Southern Denmark,    Denmark     (Mass-velocity & Darwin integrals)
  Erik Kjellgren,           Univ. of Southern Denmark,    Denmark     (MC-srDFT)
  Wim Klopper,              KIT Karlsruhe,                Germany     (R12 code in CC, SIRIUS, and ABACUS modules)
  Stefan Knecht,            ETH Zurich,                   Switzerland (Parallel CI and MCSCF, MC-srDFT)
  Rika Kobayashi,           Australian National Univ.,    Australia   (DIIS in CC, London in MCSCF)
  Henrik Koch,              NTNU,                         Norway      (CC module, Cholesky decomposition)
  Jacob Kongsted,           Univ. of Southern Denmark,    Denmark     (Polarizable embedding, polarizable density embedding, QM/MM)
  Andrea Ligabue,           University of Modena,         Italy       (CTOCD, AOSOPPA)
  Nanna H. List             Univ. of Southern Denmark,    Denmark     (Polarizable embedding)
  Ola B. Lutnaes,           University of Oslo,           Norway      (DFT Hessian)
  Juan I. Melo,             University of Buenos Aires,   Argentina   (LRESC, Relativistic Effects on NMR Shieldings)
  Kurt V. Mikkelsen,        University of Copenhagen,     Denmark     (MC-SCRF and QM/MM)
  Rolf H. Myhre,            NTNU,                         Norway      (Subsystems and CC3)
  Christian Neiss,          Univ. Erlangen-Nuernberg,     Germany     (CCSD(R12))
  Christian B. Nielsen,     University of Copenhagen,     Denmark     (QM/MM)
  Patrick Norman,           KTH Stockholm,                Sweden      (Cubic response and complex frequency response in RESPONS)
  Jeppe Olsen,              Aarhus University,            Denmark     (SIRIUS CI/density modules)
  Jogvan Magnus H. Olsen,   Aarhus University,            Denmark     (Polarizable embedding and polarizable density embedding)
  Anders Osted,             Copenhagen University,        Denmark     (QM/MM)
  Martin J. Packer,         University of Sheffield,      UK          (SOPPA)
  Filip Pawlowski,          Kazimierz Wielki University,  Poland      (CC3)
  Morten N. Pedersen,       Univ. of Southern Denmark,    Denmark     (Polarizable embedding)
  Thomas B. Pedersen,       University of Oslo,           Norway      (Cholesky decomposition)
  Patricio F. Provasi,      University of Northeastern,   Argentina   (Analysis of coupling constants in localized orbitals)
  Peter Reinholdt,          Univ. of Southern Denmark,    Denmark     (Polarizable embedding and polarizable density embedding)
  Zilvinas Rinkevicius,     KTH Stockholm,                Sweden      (open-shell DFT, ESR)
  Elias Rudberg,            KTH Stockholm,                Sweden      (DFT grid and basis info)
  Torgeir A. Ruden,         University of Oslo,           Norway      (Numerical derivatives in ABACUS)
  Kenneth Ruud,             UiT The Arctic U. of Norway,  Norway      (DALTON; ABACUS magnetic properties and much more)
  Pawel Salek,              KTH Stockholm,                Sweden      (DALTON; DFT code)
  Claire C. M. Samson       University of Karlsruhe       Germany     (Boys localization, r12 integrals in ERI)
  Alfredo Sanchez de Meras, University of Valencia,       Spain       (CC module, Cholesky decomposition)
  Trond Saue,               Paul Sabatier University,     France      (direct Fock matrix construction)
  Stephan P. A. Sauer,      University of Copenhagen,     Denmark     (SOPPA(CCSD), SOPPA prop., AOSOPPA, vibrational g-factors)
  Bernd Schimmelpfennig,    Forschungszentrum Karlsruhe,  Germany     (AMFI module)
  Anna K. Schnack-Petersen, University of Copenhagen,     Denmark     (RPA(D) and HRPA(D) properties in AOSOPPA)
  Kristian Sneskov,         Aarhus University,            Denmark     (Polarizable embedding, QM/MM)
  Arnfinn H. Steindal,      UiT The Arctic U. of Norway,  Norway      (parallel QM/MM, polarizable embedding)
  Casper Steinmann,         Aalborg University,           Denmark     (QFIT, polarizable embedding)
  K. O. Sylvester-Hvid,     University of Copenhagen,     Denmark     (MC-SCRF)
  Peter R. Taylor,          VLSCI/Univ. of Melbourne,     Australia   (Symmetry handling ABACUS, integral transformation)
  Andrew M. Teale,          University of Nottingham,     England     (DFT-AC, DFT-D)
  David P. Tew,             University of Bristol,        England     (CCSD(R12))
  Julien Toulouse,          Sorbonne Univ.,               France      (MC-srDFT)
  Olav Vahtras,             KTH Stockholm,                Sweden      (Triplet response, spin-orbit, ESR, TDDFT, open-shell DFT)
  Lucas Visscher,           Vrije Universiteit Amsterdam, Netherlands (Frozen density embedding)
  David J. Wilson,          La Trobe University,          Australia   (DFT Hessian and DFT magnetizabilities)
  Hans Agren,               KTH Stockholm,                Sweden      (SIRIUS module, RESPONS, MC-SCRF solvation)
 --------------------------------------------------------------------------------

     Date and time (Linux)  : Wed Jan 11 15:39:07 2023
     Host name              : cn020                                   

 * Work memory size             :    64000000 =  488.28 megabytes.

 * Directories for basis set searches:
   1) /gpfs/projects/rjh/adrian/fd_compare/dalton/hf/NaCl/dipole
   2) /gpfs/projects/rjh/adrian/dalton/build/basis


Compilation information
-----------------------

 Who compiled             | ahurtado
 Host                     | sn-mem
 System                   | Linux-3.10.0-1160.24.1.el7.x86_64
 CMake generator          | Unix Makefiles
 Processor                | x86_64
 64-bit integers          | OFF
 MPI                      | ON
 Fortran compiler         | /gpfs/software/intel/oneAPI/2021_4/mpi/2021.4.0/bi
                          | n/mpif90
 Fortran compiler version | GNU Fortran (GCC) 11.2.0
 C compiler               | /gpfs/software/intel/oneAPI/2021_4/mpi/2021.4.0/bi
                          | n/mpicc
 C compiler version       | gcc (GCC) 11.2.0
 C++ compiler             | /gpfs/software/intel/oneAPI/2021_4/mpi/2021.4.0/bi
                          | n/mpicxx
 C++ compiler version     | unknown
 BLAS                     | /gpfs/software/intel/oneAPI/2021_4/mkl/2021.4.0/li
                          | b/intel64/libmkl_gf_lp64.so;/gpfs/software/intel/o
                          | neAPI/2021_4/mkl/2021.4.0/lib/intel64/libmkl_seque
                          | ntial.so;/gpfs/software/intel/oneAPI/2021_4/mkl/20
                          | 21.4.0/lib/intel64/libmkl_core.so;/usr/lib64/libpt
                          | hread.so;/usr/lib64/libm.so
 LAPACK                   | /gpfs/software/intel/oneAPI/2021_4/mkl/2021.4.0/li
                          | b/intel64/libmkl_lapack95_lp64.a;/gpfs/software/in
                          | tel/oneAPI/2021_4/mkl/2021.4.0/lib/intel64/libmkl_
                          | gf_lp64.so
 Static linking           | OFF
 Last Git revision        | 66052b3af5ea7225e31178bf9a8b031913c72190
 Git branch               | (HEAD detached at Dalton2020.0)
 Configuration time       | 2023-01-11 13:33:37.731835

 * MPI parallel run using 20 processes.


   Content of the .dal input file
 ----------------------------------

**DALTON INPUT
.RUN RESPONSE
.DIRECT
**WAVE FUNCTIONS
.HF
**RESPONSE
*LINEAR
.DIPLEN
.FREQUENCIES
9
0.0 0.01227675 0.0245535 0.036830249999999995 0.049107 0.06138375 0.07366049999999999 0.085937249999
**END OF DALTON INPUT


   Content of the .mol file
 ----------------------------

BASIS
d-aug-cc-pCVQZ
blah
blah
Atomtype=2 Atomic
Charge=11 Atoms=1
Na_a 0.000000000000 0.000000000000 0.000000000000
Charge=17 Atoms=1
Cl_a 0.000000000000 0.000000000000 4.461300000000


       *******************************************************************
       *********** Output from DALTON general input processing ***********
       *******************************************************************

 --------------------------------------------------------------------------------
   Overall default print level:    0
   Print level for DALTON.STAT:    1

    Parallel calculation using MPI
    AO-direct calculation (in sections where implemented)
    HERMIT 1- and 2-electron integral sections will be executed
    "Old" integral transformation used (limited to max 255 basis functions)
    Wave function sections will be executed (SIRIUS module)
    Dynamic molecular response properties section will be executed (RESPONSE module)
 --------------------------------------------------------------------------------


   ****************************************************************************
   *************** Output of molecule and basis set information ***************
   ****************************************************************************


    The two title cards from your ".mol" input:
    ------------------------------------------------------------------------
 1: blah                                                                    
 2: blah                                                                    
    ------------------------------------------------------------------------

  Atomic type no.    1
  --------------------
  Nuclear charge:  11.00000
  Number of symmetry independent centers:    1
  Number of basis sets to read;    2
  Basis set file used for this atomic type with Z =  11 :
     "/gpfs/projects/rjh/adrian/dalton/build/basis/aug-cc-pCVQZ"

  Atomic type no.    2
  --------------------
  Nuclear charge:  17.00000
  Number of symmetry independent centers:    1
  Number of basis sets to read;    2
  Basis set file used for this atomic type with Z =  17 :
     "/gpfs/projects/rjh/adrian/dalton/build/basis/aug-cc-pCVQZ"


                      SYMADD: Requested addition of symmetry
                      --------------------------------------

 Symmetry test threshold:  5.00E-06

@   The molecule is centered at center of mass and rotated
@   so principal axes of inertia are along coordinate axes.

 Symmetry class found: C(oo,v)        

 Symmetry Independent Centres             
 ----------------------------
Cl_a  17 :      0.00000000     0.00000000     1.76961176  Isotope  1
Na_a  11 :      0.00000000     0.00000000    -2.69168824  Isotope  1

 The following symmetry elements were found:   X  Y     


                         SYMGRP: Point group information
                         -------------------------------

@    Full point group is: C(oo,v)        
@    Represented as:      C2v

@  * The irrep name for each symmetry:    1: A1     2: B1     3: B2     4: A2 

   * The point group was generated by:

      Reflection in the yz-plane
      Reflection in the xz-plane

   * Group multiplication table

        |  E   C2z  Oxz  Oyz
   -----+--------------------
     E  |  E   C2z  Oxz  Oyz
    C2z | C2z   E   Oyz  Oxz
    Oxz | Oxz  Oyz   E   C2z
    Oyz | Oyz  Oxz  C2z   E 

   * Character table

        |  E   C2z  Oxz  Oyz
   -----+--------------------
    A1  |   1    1    1    1
    B1  |   1   -1    1   -1
    B2  |   1   -1   -1    1
    A2  |   1    1   -1   -1

   * Direct product table

        | A1   B1   B2   A2 
   -----+--------------------
    A1  | A1   B1   B2   A2 
    B1  | B1   A1   A2   B2 
    B2  | B2   A2   A1   B1 
    A2  | A2   B2   B1   A1 


                                 Isotopic Masses
                                 ---------------

                           Na_a       22.989770
                           Cl_a       34.968853

                       Total mass:    57.958623 amu
                       Natural abundance:  75.770 %

 Center-of-mass coordinates (a.u.):    0.000000    0.000000    0.000000
 Center-of-mass coordinates (Angs):    0.000000    0.000000    0.000000


  Atoms and basis sets
  --------------------

  Number of atom types :    2
  Total number of atoms:    2

  Basis set used is "d-aug-cc-pCVQZ" from the basis set library.

  label    atoms   charge   prim   cont     basis
  ----------------------------------------------------------------------
  Na          1   11.0000   193   159      [24s17p8d6f4g|11s10p8d6f4g]                        
  Cl          1   17.0000   187   159      [21s16p8d6f4g|11s10p8d6f4g]                        
  ----------------------------------------------------------------------
  total:      2   28.0000   380   318
  ----------------------------------------------------------------------
  Spherical harmonic basis used.

  Threshold for neglecting AO integrals:  1.00D-12


  Cartesian Coordinates (a.u.)
  ----------------------------

  Total number of coordinates:    6
  Na_a    :     1  x   0.0000000000    2  y   0.0000000000    3  z  -2.6916882392
  Cl_a    :     4  x   0.0000000000    5  y   0.0000000000    6  z   1.7696117608


  Symmetry Coordinates
  --------------------

  Number of coordinates in each symmetry:     2    2    2    0

  Symmetry  A1  ( 1)

    1   Na_a  z    3
    2   Cl_a  z    6

  Symmetry  B1  ( 2)

    3   Na_a  x    1
    4   Cl_a  x    4

  Symmetry  B2  ( 3)

    5   Na_a  y    2
    6   Cl_a  y    5


   Interatomic separations (in Angstrom):
   --------------------------------------

            Na_a        Cl_a  
            ------      ------
 Na_a  :    0.000000
 Cl_a  :    2.360818    0.000000


  Max    interatomic separation is    2.3608 Angstrom (    4.4613 Bohr)
  between atoms    2 and    1, "Cl_a  " and "Na_a  ".

  Min YX interatomic separation is    2.3608 Angstrom (    4.4613 Bohr)


  Bond distances (Angstrom):
  --------------------------

                  atom 1     atom 2       distance
                  ------     ------       --------
  bond distance:  Cl_a       Na_a         2.360818




 Principal moments of inertia (u*A**2) and principal axes
 --------------------------------------------------------

   IA       0.000000          0.000000    0.000000    1.000000
   IB      77.307758          0.000000    1.000000    0.000000
   IC      77.307758          1.000000    0.000000    0.000000


 Rotational constants
 --------------------

@    The molecule is linear.

               B =         6537.24 MHz     (    0.218059 cm-1)


@  Nuclear repulsion energy :   41.916033443167 Hartree


  Symmetry Orbitals
  -----------------

  Number of orbitals in each symmetry:         122   76   76   44


  Symmetry  A1 ( 1)

    1     Na_a     1s         1
    2     Na_a     1s         2
    3     Na_a     1s         3
    4     Na_a     1s         4
    5     Na_a     1s         5
    6     Na_a     1s         6
    7     Na_a     1s         7
    8     Na_a     1s         8
    9     Na_a     1s         9
   10     Na_a     1s        10
   11     Na_a     1s        11
   12     Na_a     2pz       14
   13     Na_a     2pz       17
   14     Na_a     2pz       20
   15     Na_a     2pz       23
   16     Na_a     2pz       26
   17     Na_a     2pz       29
   18     Na_a     2pz       32
   19     Na_a     2pz       35
   20     Na_a     2pz       38
   21     Na_a     2pz       41
   22     Na_a     3d0       44
   23     Na_a     3d2+      46
   24     Na_a     3d0       49
   25     Na_a     3d2+      51
   26     Na_a     3d0       54
   27     Na_a     3d2+      56
   28     Na_a     3d0       59
   29     Na_a     3d2+      61
   30     Na_a     3d0       64
   31     Na_a     3d2+      66
   32     Na_a     3d0       69
   33     Na_a     3d2+      71
   34     Na_a     3d0       74
   35     Na_a     3d2+      76
   36     Na_a     3d0       79
   37     Na_a     3d2+      81
   38     Na_a     4f0       85
   39     Na_a     4f2+      87
   40     Na_a     4f0       92
   41     Na_a     4f2+      94
   42     Na_a     4f0       99
   43     Na_a     4f2+     101
   44     Na_a     4f0      106
   45     Na_a     4f2+     108
   46     Na_a     4f0      113
   47     Na_a     4f2+     115
   48     Na_a     4f0      120
   49     Na_a     4f2+     122
   50     Na_a     5g0      128
   51     Na_a     5g2+     130
   52     Na_a     5g4+     132
   53     Na_a     5g0      137
   54     Na_a     5g2+     139
   55     Na_a     5g4+     141
   56     Na_a     5g0      146
   57     Na_a     5g2+     148
   58     Na_a     5g4+     150
   59     Na_a     5g0      155
   60     Na_a     5g2+     157
   61     Na_a     5g4+     159
   62     Cl_a     1s       160
   63     Cl_a     1s       161
   64     Cl_a     1s       162
   65     Cl_a     1s       163
   66     Cl_a     1s       164
   67     Cl_a     1s       165
   68     Cl_a     1s       166
   69     Cl_a     1s       167
   70     Cl_a     1s       168
   71     Cl_a     1s       169
   72     Cl_a     1s       170
   73     Cl_a     2pz      173
   74     Cl_a     2pz      176
   75     Cl_a     2pz      179
   76     Cl_a     2pz      182
   77     Cl_a     2pz      185
   78     Cl_a     2pz      188
   79     Cl_a     2pz      191
   80     Cl_a     2pz      194
   81     Cl_a     2pz      197
   82     Cl_a     2pz      200
   83     Cl_a     3d0      203
   84     Cl_a     3d2+     205
   85     Cl_a     3d0      208
   86     Cl_a     3d2+     210
   87     Cl_a     3d0      213
   88     Cl_a     3d2+     215
   89     Cl_a     3d0      218
   90     Cl_a     3d2+     220
   91     Cl_a     3d0      223
   92     Cl_a     3d2+     225
   93     Cl_a     3d0      228
   94     Cl_a     3d2+     230
   95     Cl_a     3d0      233
   96     Cl_a     3d2+     235
   97     Cl_a     3d0      238
   98     Cl_a     3d2+     240
   99     Cl_a     4f0      244
  100     Cl_a     4f2+     246
  101     Cl_a     4f0      251
  102     Cl_a     4f2+     253
  103     Cl_a     4f0      258
  104     Cl_a     4f2+     260
  105     Cl_a     4f0      265
  106     Cl_a     4f2+     267
  107     Cl_a     4f0      272
  108     Cl_a     4f2+     274
  109     Cl_a     4f0      279
  110     Cl_a     4f2+     281
  111     Cl_a     5g0      287
  112     Cl_a     5g2+     289
  113     Cl_a     5g4+     291
  114     Cl_a     5g0      296
  115     Cl_a     5g2+     298
  116     Cl_a     5g4+     300
  117     Cl_a     5g0      305
  118     Cl_a     5g2+     307
  119     Cl_a     5g4+     309
  120     Cl_a     5g0      314
  121     Cl_a     5g2+     316
  122     Cl_a     5g4+     318


  Symmetry  B1 ( 2)

  123     Na_a     2px       12
  124     Na_a     2px       15
  125     Na_a     2px       18
  126     Na_a     2px       21
  127     Na_a     2px       24
  128     Na_a     2px       27
  129     Na_a     2px       30
  130     Na_a     2px       33
  131     Na_a     2px       36
  132     Na_a     2px       39
  133     Na_a     3d1+      45
  134     Na_a     3d1+      50
  135     Na_a     3d1+      55
  136     Na_a     3d1+      60
  137     Na_a     3d1+      65
  138     Na_a     3d1+      70
  139     Na_a     3d1+      75
  140     Na_a     3d1+      80
  141     Na_a     4f1+      86
  142     Na_a     4f3+      88
  143     Na_a     4f1+      93
  144     Na_a     4f3+      95
  145     Na_a     4f1+     100
  146     Na_a     4f3+     102
  147     Na_a     4f1+     107
  148     Na_a     4f3+     109
  149     Na_a     4f1+     114
  150     Na_a     4f3+     116
  151     Na_a     4f1+     121
  152     Na_a     4f3+     123
  153     Na_a     5g1+     129
  154     Na_a     5g3+     131
  155     Na_a     5g1+     138
  156     Na_a     5g3+     140
  157     Na_a     5g1+     147
  158     Na_a     5g3+     149
  159     Na_a     5g1+     156
  160     Na_a     5g3+     158
  161     Cl_a     2px      171
  162     Cl_a     2px      174
  163     Cl_a     2px      177
  164     Cl_a     2px      180
  165     Cl_a     2px      183
  166     Cl_a     2px      186
  167     Cl_a     2px      189
  168     Cl_a     2px      192
  169     Cl_a     2px      195
  170     Cl_a     2px      198
  171     Cl_a     3d1+     204
  172     Cl_a     3d1+     209
  173     Cl_a     3d1+     214
  174     Cl_a     3d1+     219
  175     Cl_a     3d1+     224
  176     Cl_a     3d1+     229
  177     Cl_a     3d1+     234
  178     Cl_a     3d1+     239
  179     Cl_a     4f1+     245
  180     Cl_a     4f3+     247
  181     Cl_a     4f1+     252
  182     Cl_a     4f3+     254
  183     Cl_a     4f1+     259
  184     Cl_a     4f3+     261
  185     Cl_a     4f1+     266
  186     Cl_a     4f3+     268
  187     Cl_a     4f1+     273
  188     Cl_a     4f3+     275
  189     Cl_a     4f1+     280
  190     Cl_a     4f3+     282
  191     Cl_a     5g1+     288
  192     Cl_a     5g3+     290
  193     Cl_a     5g1+     297
  194     Cl_a     5g3+     299
  195     Cl_a     5g1+     306
  196     Cl_a     5g3+     308
  197     Cl_a     5g1+     315
  198     Cl_a     5g3+     317


  Symmetry  B2 ( 3)

  199     Na_a     2py       13
  200     Na_a     2py       16
  201     Na_a     2py       19
  202     Na_a     2py       22
  203     Na_a     2py       25
  204     Na_a     2py       28
  205     Na_a     2py       31
  206     Na_a     2py       34
  207     Na_a     2py       37
  208     Na_a     2py       40
  209     Na_a     3d1-      43
  210     Na_a     3d1-      48
  211     Na_a     3d1-      53
  212     Na_a     3d1-      58
  213     Na_a     3d1-      63
  214     Na_a     3d1-      68
  215     Na_a     3d1-      73
  216     Na_a     3d1-      78
  217     Na_a     4f3-      82
  218     Na_a     4f1-      84
  219     Na_a     4f3-      89
  220     Na_a     4f1-      91
  221     Na_a     4f3-      96
  222     Na_a     4f1-      98
  223     Na_a     4f3-     103
  224     Na_a     4f1-     105
  225     Na_a     4f3-     110
  226     Na_a     4f1-     112
  227     Na_a     4f3-     117
  228     Na_a     4f1-     119
  229     Na_a     5g3-     125
  230     Na_a     5g1-     127
  231     Na_a     5g3-     134
  232     Na_a     5g1-     136
  233     Na_a     5g3-     143
  234     Na_a     5g1-     145
  235     Na_a     5g3-     152
  236     Na_a     5g1-     154
  237     Cl_a     2py      172
  238     Cl_a     2py      175
  239     Cl_a     2py      178
  240     Cl_a     2py      181
  241     Cl_a     2py      184
  242     Cl_a     2py      187
  243     Cl_a     2py      190
  244     Cl_a     2py      193
  245     Cl_a     2py      196
  246     Cl_a     2py      199
  247     Cl_a     3d1-     202
  248     Cl_a     3d1-     207
  249     Cl_a     3d1-     212
  250     Cl_a     3d1-     217
  251     Cl_a     3d1-     222
  252     Cl_a     3d1-     227
  253     Cl_a     3d1-     232
  254     Cl_a     3d1-     237
  255     Cl_a     4f3-     241
  256     Cl_a     4f1-     243
  257     Cl_a     4f3-     248
  258     Cl_a     4f1-     250
  259     Cl_a     4f3-     255
  260     Cl_a     4f1-     257
  261     Cl_a     4f3-     262
  262     Cl_a     4f1-     264
  263     Cl_a     4f3-     269
  264     Cl_a     4f1-     271
  265     Cl_a     4f3-     276
  266     Cl_a     4f1-     278
  267     Cl_a     5g3-     284
  268     Cl_a     5g1-     286
  269     Cl_a     5g3-     293
  270     Cl_a     5g1-     295
  271     Cl_a     5g3-     302
  272     Cl_a     5g1-     304
  273     Cl_a     5g3-     311
  274     Cl_a     5g1-     313


  Symmetry  A2 ( 4)

  275     Na_a     3d2-      42
  276     Na_a     3d2-      47
  277     Na_a     3d2-      52
  278     Na_a     3d2-      57
  279     Na_a     3d2-      62
  280     Na_a     3d2-      67
  281     Na_a     3d2-      72
  282     Na_a     3d2-      77
  283     Na_a     4f2-      83
  284     Na_a     4f2-      90
  285     Na_a     4f2-      97
  286     Na_a     4f2-     104
  287     Na_a     4f2-     111
  288     Na_a     4f2-     118
  289     Na_a     5g4-     124
  290     Na_a     5g2-     126
  291     Na_a     5g4-     133
  292     Na_a     5g2-     135
  293     Na_a     5g4-     142
  294     Na_a     5g2-     144
  295     Na_a     5g4-     151
  296     Na_a     5g2-     153
  297     Cl_a     3d2-     201
  298     Cl_a     3d2-     206
  299     Cl_a     3d2-     211
  300     Cl_a     3d2-     216
  301     Cl_a     3d2-     221
  302     Cl_a     3d2-     226
  303     Cl_a     3d2-     231
  304     Cl_a     3d2-     236
  305     Cl_a     4f2-     242
  306     Cl_a     4f2-     249
  307     Cl_a     4f2-     256
  308     Cl_a     4f2-     263
  309     Cl_a     4f2-     270
  310     Cl_a     4f2-     277
  311     Cl_a     5g4-     283
  312     Cl_a     5g2-     285
  313     Cl_a     5g4-     292
  314     Cl_a     5g2-     294
  315     Cl_a     5g4-     301
  316     Cl_a     5g2-     303
  317     Cl_a     5g4-     310
  318     Cl_a     5g2-     312

  Symmetries of electric field:  B1 (2)  B2 (3)  A1 (1)

  Symmetries of magnetic field:  B2 (3)  B1 (2)  A2 (4)


                     .---------------------------------------.
                     | Starting in Integral Section (HERMIT) |
                     `---------------------------------------'



 ***************************************************************************************
 ****************** Output from **INTEGRALS input processing (HERMIT) ******************
 ***************************************************************************************


 - Using defaults, no **INTEGRALS input found

 Default print level:        1

 Calculation of one-electron Hamiltonian integrals.

 Center of mass  (bohr):      0.000000000000      0.000000000000      0.000000000000
 Operator center (bohr):      0.000000000000      0.000000000000      0.000000000000
 Gauge origin    (bohr):      0.000000000000      0.000000000000      0.000000000000
 Dipole origin   (bohr):      0.000000000000      0.000000000000      0.000000000000


     ************************************************************************
     ************************** Output from HERINT **************************
     ************************************************************************



                      Nuclear contribution to dipole moments
                      --------------------------------------

                 au               Debye          C m (/(10**-30)

      z      0.47482930         1.20689563         4.02577048


  Time used in ONEDRV     is       0.15 seconds
  Time used in GABGEN     is       2.44 seconds
  Total CPU  time used in HERMIT:   3.12 seconds
  Total wall time used in HERMIT:   3.13 seconds


                        .----------------------------------.
                        | End of Integral Section (HERMIT) |
                        `----------------------------------'



                   .--------------------------------------------.
                   | Starting in Wave Function Section (SIRIUS) |
                   `--------------------------------------------'


 *** Output from Huckel module :

     Using EWMO model:          T
     Using EHT  model:          F
     Number of Huckel orbitals each symmetry:   12    5    5    1

 EWMO - Energy Weighted Maximum Overlap - is a Huckel type method,
        which normally is better than Extended Huckel Theory.
 Reference: Linderberg and Ohrn, Propagators in Quantum Chemistry (Wiley, 1973)

 Huckel EWMO eigenvalues for symmetry :  1
         -104.883948     -40.478552     -10.608924      -8.072225      -2.801071
           -1.524984      -1.108334      -0.511066      -0.164216      -0.079718
           -0.055556      -0.055019

 Huckel EWMO eigenvalues for symmetry :  2
           -8.072210      -1.518367      -0.513805      -0.107573      -0.054300

 Huckel EWMO eigenvalues for symmetry :  3
           -8.072210      -1.518367      -0.513805      -0.107573      -0.054300

 Huckel EWMO eigenvalues for symmetry :  4
           -0.055556

 **********************************************************************
 *SIRIUS* a direct, restricted step, second order MCSCF program       *
 **********************************************************************

 
     Date and time (Linux)  : Wed Jan 11 15:39:11 2023
     Host name              : cn020                                   

 Title lines from ".mol" input file:
     blah                                                                    
     blah                                                                    

 Print level on unit LUPRI =   2 is   0
 Print level on unit LUW4  =   2 is   5

@    Restricted, closed shell Hartree-Fock calculation.

@    Time-dependent Hartree-Fock calculation (random phase approximation).
 Fock matrices are calculated directly and in parallel without use of integrals on disk.

 Initial molecular orbitals are obtained according to
 ".MOSTART EWMO  " input option

     Wave function specification
     ============================
@    Wave function type        --- HF ---
@    Number of closed shell electrons          28
@    Number of electrons in active shells       0
@    Total charge of the molecule               0

@    Spin multiplicity and 2 M_S                1         0
@    Total number of symmetries                 4 (point group: C2v)
@    Reference state symmetry                   1 (irrep name : A1 )

     Orbital specifications
     ======================
@    Abelian symmetry species          All |    1    2    3    4
@                                          |  A1   B1   B2   A2 
                                       --- |  ---  ---  ---  ---
@    Total number of orbitals          318 |  122   76   76   44
@    Number of basis functions         318 |  122   76   76   44

      ** Automatic occupation of RHF orbitals **

      -- Initial occupation of symmetries is determined from extended Huckel guess.           
      -- Initial occupation of symmetries is :
@    Occupied SCF orbitals              14 |    8    3    3    0

     Maximum number of Fock   iterations      0
     Maximum number of DIIS   iterations     60
     Maximum number of QC-SCF iterations     60
     Threshold for SCF convergence     1.00D-05

    INFORMATION: Switched to "new" integral transformation (from 1988 ;-) )
    because more than 255 basis functions.


 ***********************************************
 ***** DIIS acceleration of SCF iterations *****
 ***********************************************

 C1-DIIS algorithm; max error vectors =    8

 Automatic occupation of symmetries with  28 electrons.

 Iter     Total energy    Error norm  Delta(E)    SCF occupation
 -----------------------------------------------------------------------------
   1  Screening settings (-IFTHRS, JTDIIS, DIFDEN, times)   -8    1    T  5.41D+00  5.41D+00
@  1  -621.417676355       1.94D+00  -6.21D+02     8   3   3   0
      Virial theorem: -V/T =      1.997308
@    MULPOP   Na_a    0.57; Cl_a   -0.57; 
   1  Level shift: doubly occupied orbital energies shifted by -2.00D-01
 -----------------------------------------------------------------------------
   2  Screening settings (-IFTHRS, JTDIIS, DIFDEN, times)   -8    2    T  6.14D+00  6.14D+00
@  2  -621.457061683       2.55D-01  -3.94D-02     8   3   3   0
      Virial theorem: -V/T =      2.000883
@    MULPOP   Na_a    0.83; Cl_a   -0.83; 
   2  Level shift: doubly occupied orbital energies shifted by -5.00D-02
 -----------------------------------------------------------------------------
   3  Screening settings (-IFTHRS, JTDIIS, DIFDEN, times)  -12    3    F  6.17D+00  6.17D+00
@  3  -621.459399871       6.96D-02  -2.34D-03     8   3   3   0
      Virial theorem: -V/T =      1.999728
@    MULPOP   Na_a    0.92; Cl_a   -0.92; 
   3  Level shift: doubly occupied orbital energies shifted by -2.50D-02
 -----------------------------------------------------------------------------
   4  Screening settings (-IFTHRS, JTDIIS, DIFDEN, times)  -12    4    T  6.25D+00  6.25D+00
@  4  -621.459638925       1.29D-02  -2.39D-04     8   3   3   0
      Virial theorem: -V/T =      1.999986
@    MULPOP   Na_a    0.92; Cl_a   -0.92; 
 -----------------------------------------------------------------------------
   5  Screening settings (-IFTHRS, JTDIIS, DIFDEN, times)  -12    5    T  6.19D+00  6.19D+00
@  5  -621.459675801       2.58D-03  -3.69D-05     8   3   3   0
      Virial theorem: -V/T =      1.999973
@    MULPOP   Na_a    0.91; Cl_a   -0.91; 
 -----------------------------------------------------------------------------
   6  Screening settings (-IFTHRS, JTDIIS, DIFDEN, times)  -12    6    T  6.18D+00  6.18D+00
@  6  -621.459677524       7.78D-04  -1.72D-06     8   3   3   0
      Virial theorem: -V/T =      1.999971
@    MULPOP   Na_a    0.91; Cl_a   -0.91; 
 -----------------------------------------------------------------------------
   7  Screening settings (-IFTHRS, JTDIIS, DIFDEN, times)  -12    7    T  6.12D+00  6.12D+00
@  7  -621.459677674       2.52D-04  -1.49D-07     8   3   3   0
      Virial theorem: -V/T =      1.999972
@    MULPOP   Na_a    0.91; Cl_a   -0.91; 
 -----------------------------------------------------------------------------
   8  Screening settings (-IFTHRS, JTDIIS, DIFDEN, times)  -12    8    T  6.16D+00  6.18D+00
@  8  -621.459677685       5.25D-05  -1.08D-08     8   3   3   0
      Virial theorem: -V/T =      1.999972
@    MULPOP   Na_a    0.91; Cl_a   -0.91; 
 -----------------------------------------------------------------------------
   9  Screening settings (-IFTHRS, JTDIIS, DIFDEN, times)  -12    9    T  6.16D+00  6.16D+00
@  9  -621.459677685       1.07D-05  -4.38D-10     8   3   3   0
      Virial theorem: -V/T =      1.999972
@    MULPOP   Na_a    0.91; Cl_a   -0.91; 
 -----------------------------------------------------------------------------
  10  Screening settings (-IFTHRS, JTDIIS, DIFDEN, times)  -12   10    T  6.17D+00  6.17D+00
@ 10  -621.459677685       3.17D-06  -2.03D-11     8   3   3   0

@ *** DIIS converged in  10 iterations !
@     Converged SCF energy, gradient:   -621.459677685037    3.17D-06
    - total time used in SIRFCK :              0.00 seconds


 *** SCF orbital energy analysis ***

 Only the 20 lowest virtual orbital energies printed in each symmetry.

 Number of electrons :   28
 Orbital occupations :    8    3    3    0

 Sym       Hartree-Fock orbital energies

1 A1   -104.70373269   -40.50043190   -10.42932079    -7.89581626    -2.82039708
         -1.54351433    -0.94289566    -0.37104504    -0.01965747     0.00116331
          0.00811589     0.01775342     0.01963410     0.02445751     0.03170956
          0.04614699     0.06014814     0.06746722     0.06880704     0.07881957
          0.08099926     0.09678504     0.10821685     0.15697675     0.17410011
          0.17896173     0.18783065     0.19784569

2 B1     -7.89557242    -1.54336151    -0.35428713     0.00469712     0.01700292
          0.02638286     0.04515794     0.06141262     0.07251323     0.07538041
          0.10506326     0.10755406     0.17147103     0.18577316     0.19920557
          0.22046247     0.22174542     0.24577269     0.26357270     0.33413597
          0.43433177     0.46752715     0.49693094

3 B2     -7.89557242    -1.54336151    -0.35428713     0.00469712     0.01700292
          0.02638286     0.04515794     0.06141262     0.07251323     0.07538041
          0.10506326     0.10755406     0.17147103     0.18577316     0.19920557
          0.22046247     0.22174542     0.24577269     0.26357270     0.33413597
          0.43433177     0.46752715     0.49693094

4 A2      0.02445751     0.06880704     0.08099926     0.17410011     0.18783065
          0.20090042     0.20413589     0.27297174     0.39826781     0.44900451
          0.48084596     0.51555955     0.60254843     0.69919500     0.79993690
          0.88078746     0.94502205     1.10576447     1.15822731     1.19887191

    E(LUMO) :    -0.01965747 au (symmetry 1)
  - E(HOMO) :    -0.35428713 au (symmetry 2)
  ------------------------------------------
    gap     :     0.33462966 au

 --- Writing SIRIFC interface file

 CPU and wall time for SCF :      61.192      61.243


                       .-----------------------------------.
                       | --- Final results from SIRIUS --- |
                       `-----------------------------------'


@    Spin multiplicity:           1
@    Spatial symmetry:            1 ( irrep  A1  in C2v )
@    Total charge of molecule:    0

@    Final HF energy:            -621.459677685037                 
@    Nuclear repulsion:            41.916033443167
@    Electronic energy:          -663.375711128204

@    Final gradient norm:           0.000003167209

 
     Date and time (Linux)  : Wed Jan 11 15:40:12 2023
     Host name              : cn020                                   

File label for MO orbitals:  11Jan23   FOCKDIIS

 (Only coefficients > 0.0100 are printed.)

 Molecular orbitals for symmetry species 1  (A1 )
 ------------------------------------------------

    Orbital         1        2        3        4        5        6        7
   1 Na_a:1s    -0.0000  -0.9999  -0.0000  -0.0000   0.0003  -0.0014   0.0004
   2 Na_a:1s     0.0000  -0.0000   0.0002  -0.0005  -0.9945  -0.0293   0.0159
   3 Na_a:1s     0.0001  -0.0004   0.0006  -0.0009   0.0061  -0.0168  -0.0193
   4 Na_a:1s     0.0014  -0.0003   0.0086  -0.0005  -0.0002  -0.0051   0.0262
   5 Na_a:1s     0.0008  -0.0004   0.0030  -0.0018   0.0098   0.0478  -0.0288
   6 Na_a:1s     0.0003  -0.0002  -0.0007  -0.0016   0.0070   0.0552  -0.0417
  12 Na_a:2pz    0.0006   0.0008   0.0031  -0.0011   0.0155  -1.0060   0.0624
  14 Na_a:2pz    0.0011  -0.0004   0.0066  -0.0012   0.0038   0.0105   0.0028
  15 Na_a:2pz    0.0003  -0.0002   0.0003  -0.0018   0.0078   0.0538  -0.0403
  16 Na_a:2pz    0.0001  -0.0001  -0.0005  -0.0006   0.0025   0.0186  -0.0146
  28 Na_a:3d0    0.0001  -0.0000   0.0004  -0.0006   0.0023   0.0118  -0.0100
  30 Na_a:3d0    0.0004  -0.0002   0.0026  -0.0000  -0.0007  -0.0075   0.0106
  32 Na_a:3d0    0.0001  -0.0000   0.0001  -0.0010   0.0039   0.0278  -0.0229
  34 Na_a:3d0    0.0000  -0.0000  -0.0004  -0.0004   0.0016   0.0122  -0.0100
  62 Cl_a:1s     1.0001   0.0000  -0.0000  -0.0000   0.0000   0.0001   0.0001
  63 Cl_a:1s    -0.0001   0.0000  -1.0010  -0.0015   0.0002   0.0019   0.0021
  64 Cl_a:1s    -0.0007   0.0001  -0.0039  -0.0008  -0.0011  -0.0174  -0.9646
  66 Cl_a:1s     0.0012  -0.0001   0.0074   0.0002   0.0003  -0.0032   0.0311
  67 Cl_a:1s    -0.0009   0.0003  -0.0066   0.0020  -0.0037  -0.0148  -0.0473
  71 Cl_a:1s    -0.0014   0.0005  -0.0059   0.0026  -0.0126  -0.0669   0.0095
  72 Cl_a:1s    -0.0005   0.0003  -0.0003   0.0015  -0.0080  -0.0546   0.0381
  73 Cl_a:2pz   -0.0001  -0.0000   0.0009  -1.0004   0.0001  -0.0002  -0.0010
  74 Cl_a:2pz    0.0002  -0.0001   0.0008  -0.0004   0.0023   0.0151   0.0198
  77 Cl_a:2pz    0.0009  -0.0002   0.0056  -0.0002   0.0024   0.0017   0.0259
  81 Cl_a:2pz    0.0005  -0.0001   0.0024   0.0002   0.0008  -0.0034   0.0131
  95 Cl_a:3d0   -0.0003  -0.0000  -0.0021  -0.0002  -0.0001   0.0045  -0.0142

    Orbital         8        9       10       11       12       13       14
   2 Na_a:1s    -0.0256   0.0060   0.0034   0.0206  -0.0415   0.0099   0.0000
   3 Na_a:1s     0.0944  -0.1234   0.0560   0.0038  -0.0115   0.0355   0.0000
   4 Na_a:1s    -0.0086  -0.0640  -0.1964   0.7218   0.2302   0.9570   0.0000
   5 Na_a:1s     0.0245  -0.0413   0.2252   1.0194  -2.3533   0.3720  -0.0000
   6 Na_a:1s     0.0153  -0.4255   3.0665  -4.4247  -9.7238 -17.2237  -0.0000
   9 Na_a:1s    -0.0040   0.0008   0.0038   0.0098  -0.0264   0.0115  -0.0000
  10 Na_a:1s    -0.0011  -0.2837   0.4823   1.7451  -2.2527   1.1923   0.0000
  11 Na_a:1s     0.0004   0.0006  -1.2254  -1.1402   0.8885  -0.5559  -0.0000
  12 Na_a:2pz   -0.0909  -0.0439  -0.0585   0.1562   0.1536  -0.0075  -0.0000
  13 Na_a:2pz   -0.0050   0.0091  -0.0762   0.1682   0.1247  -0.0055  -0.0000
  14 Na_a:2pz    0.0128   0.1493  -0.0585   0.4856  -0.5556   0.4255   0.0000
  15 Na_a:2pz    0.0612   0.2260   0.5235  -0.5697  -2.6577  -3.7617  -0.0000
  16 Na_a:2pz    0.0041   0.1850   1.9922  -2.1343  -7.9094 -10.5049  -0.0000
  19 Na_a:2pz   -0.0031  -0.0036  -0.0039   0.0093   0.0131   0.0009   0.0000
  20 Na_a:2pz    0.0019   0.0681  -1.8591   2.8285   5.7996   6.3481   0.0000
  21 Na_a:2pz   -0.0004   0.0618   1.3398  -1.9894  -2.5883  -2.6774  -0.0000
  28 Na_a:3d0    0.0251   0.0005  -0.0075   0.0367  -0.0109  -0.0448  -0.0000
  29 Na_a:3d2+  -0.0000   0.0000   0.0000  -0.0000   0.0000  -0.0000   0.0419
  30 Na_a:3d0   -0.0160   0.0181   0.0096   0.1209  -0.1879   0.2843   0.0000
  31 Na_a:3d2+   0.0000  -0.0000  -0.0000   0.0000  -0.0000   0.0000  -0.1441
  32 Na_a:3d0    0.0517  -0.0197   0.1425  -0.2447  -0.4239  -1.0993  -0.0000
  33 Na_a:3d2+  -0.0000   0.0000   0.0000  -0.0000   0.0000   0.0000   0.2591
  34 Na_a:3d0    0.0139  -0.0428   0.5435  -0.6752  -1.7927  -2.5944  -0.0000
  35 Na_a:3d2+   0.0000  -0.0000  -0.0000   0.0000  -0.0000   0.0000  -0.6304
  36 Na_a:3d0    0.0005  -0.0403  -0.1286   0.7306  -0.0874  -1.1547  -0.0000
  37 Na_a:3d2+  -0.0000   0.0000   0.0000  -0.0000   0.0000  -0.0000   1.2952
  44 Na_a:4f0    0.0069   0.0061   0.0010   0.0434  -0.0593   0.0460   0.0000
  46 Na_a:4f0    0.0177  -0.0037   0.0883  -0.2106  -0.1989  -0.4604  -0.0000
  48 Na_a:4f0    0.0040  -0.0005   0.0920  -0.0556  -0.3673  -0.4837  -0.0000
  49 Na_a:4f2+  -0.0000   0.0000   0.0000  -0.0000   0.0000   0.0000  -0.2374
  53 Na_a:5g0    0.0025   0.0008   0.0016   0.0039  -0.0116   0.0004  -0.0000
  56 Na_a:5g0    0.0015   0.0008  -0.0020   0.0001   0.0051   0.0113   0.0000
  57 Na_a:5g2+   0.0000  -0.0000  -0.0000   0.0000  -0.0000   0.0000   0.0299
  59 Na_a:5g0    0.0050  -0.0012   0.0274  -0.0539  -0.0683  -0.1344  -0.0000
  60 Na_a:5g2+  -0.0000   0.0000   0.0000  -0.0000   0.0000   0.0000  -0.0532
  64 Cl_a:1s    -0.0673   0.0376  -0.0143   0.0116  -0.0057  -0.0192   0.0000
  66 Cl_a:1s    -0.0198   0.0027   0.0037   0.0229  -0.0419   0.0040  -0.0000
  67 Cl_a:1s    -0.0295  -0.0093  -0.0327  -0.0115   0.1621  -0.0325  -0.0000
  71 Cl_a:1s    -0.0082  -0.0634  -0.5559   0.1031   2.8434   3.0244   0.0000
  72 Cl_a:1s     0.0187  -0.0533  -2.8502   2.1536  12.5761  16.4782   0.0000
  74 Cl_a:2pz   -0.9095  -0.0861   0.0334  -0.0360   0.0437   0.0027  -0.0000
  76 Cl_a:2pz    0.0101   0.0015   0.0020  -0.0085  -0.0009  -0.0001  -0.0000
  77 Cl_a:2pz   -0.0980   0.0076   0.0062   0.2481  -0.3179   0.0859   0.0000
  81 Cl_a:2pz   -0.0895   0.0392  -0.1333   0.8960  -0.6153   0.5492   0.0000
  82 Cl_a:2pz   -0.0070   0.0135   0.3579  -1.0137  -1.1310  -0.7112  -0.0000
  93 Cl_a:3d0    0.0209  -0.0003  -0.0024  -0.0057   0.0199   0.0112   0.0000
  95 Cl_a:3d0    0.0443  -0.0035   0.0319  -0.1601   0.0397  -0.1277  -0.0000
  96 Cl_a:3d2+  -0.0000   0.0000   0.0000  -0.0000   0.0000  -0.0000  -0.0336
  97 Cl_a:3d0    0.0147  -0.0124   0.0983  -0.2435  -0.1307  -0.6186  -0.0000
  98 Cl_a:3d2+   0.0000  -0.0000  -0.0000   0.0000  -0.0000  -0.0000   0.1814
 107 Cl_a:4f0   -0.0088  -0.0013   0.0018   0.0063  -0.0113  -0.0207  -0.0000
 109 Cl_a:4f0   -0.0083  -0.0007  -0.0147   0.0338   0.0258   0.0604   0.0000

    Orbital        15       16       17       18
   2 Na_a:1s     0.0187   0.0507   0.0434  -0.1586
   3 Na_a:1s     0.0691   0.1588   0.0521  -0.4564
   4 Na_a:1s     1.2937  -0.2926   2.7892  -1.4774
   5 Na_a:1s    -0.4055   6.8323   7.9428 -11.0812
   6 Na_a:1s   -20.2582  54.8811  14.1875 -12.8550
   9 Na_a:1s     0.0077   0.0161   0.0167  -0.1031
  10 Na_a:1s     3.1104  -1.7834  -2.8126  -1.8011
  11 Na_a:1s    -0.5983   0.1943   0.2916   0.5702
  12 Na_a:2pz    0.2661   0.3909   0.7962   0.1264
  13 Na_a:2pz    0.2603   0.3831   0.8069   0.1778
  14 Na_a:2pz    0.5215   0.5067   1.4885  -2.3579
  15 Na_a:2pz   -3.8910  12.1824   3.2911  -3.5731
  16 Na_a:2pz   -9.5904  29.0395  -1.4478  -9.4864
  18 Na_a:2pz    0.0032   0.0062   0.0113   0.0004
  19 Na_a:2pz    0.0184   0.0198   0.0489   0.0143
  20 Na_a:2pz    9.4075 -13.9430  -1.6079   4.2718
  21 Na_a:2pz   -2.6889   3.1682  -0.6373  -0.9707
  28 Na_a:3d0    0.0383   0.1689   0.1493  -0.0528
  30 Na_a:3d0    0.1659  -0.2577   0.2112  -0.9738
  32 Na_a:3d0   -0.9221   2.6346   0.0886  -0.1085
  34 Na_a:3d0   -2.5993   6.5255  -0.8995  -2.5082
  36 Na_a:3d0    2.0849   0.2067  -2.2102   0.3670
  42 Na_a:4f0   -0.0093   0.0337   0.0271  -0.0157
  44 Na_a:4f0    0.0659   0.0253   0.0322  -0.2640
  46 Na_a:4f0   -0.6093   1.0019  -0.1206   0.0873
  48 Na_a:4f0   -0.2029   1.4439  -0.7791  -0.4686
  53 Na_a:5g0    0.0037   0.0119  -0.0021  -0.0364
  56 Na_a:5g0   -0.0043  -0.0164   0.0344  -0.0019
  59 Na_a:5g0   -0.1532   0.2929  -0.1028  -0.0087
  63 Cl_a:1s    -0.0061   0.0011   0.0021   0.0106
  64 Cl_a:1s    -0.0435  -0.0447   0.0121   0.0119
  65 Cl_a:1s    -0.0059  -0.0037  -0.0013   0.0158
  66 Cl_a:1s     0.0351   0.0209   0.0125  -0.1344
  67 Cl_a:1s    -0.0100   0.0364   0.1892   0.4479
  71 Cl_a:1s     2.7578 -11.3422  -3.4280   6.1463
  72 Cl_a:1s    16.1906 -56.8018 -14.4576  21.6909
  73 Cl_a:2pz   -0.0034  -0.0069  -0.0211   0.0075
  74 Cl_a:2pz   -0.0039   0.0208  -0.1263  -0.0134
  75 Cl_a:2pz    0.0079   0.0155   0.0451  -0.0162
  76 Cl_a:2pz   -0.0120  -0.0290  -0.0417   0.0143
  77 Cl_a:2pz    0.2421   0.7325   0.8407  -1.4001
  81 Cl_a:2pz    0.6047   2.9138   5.5001  -4.2360
  82 Cl_a:2pz   -5.6879   7.6170   9.9650  -2.8192
  91 Cl_a:3d0   -0.0014   0.0162   0.0108  -0.0128
  93 Cl_a:3d0    0.0052  -0.0681  -0.0319   0.0517
  95 Cl_a:3d0   -0.2486  -0.1219  -0.5409   0.4646
  97 Cl_a:3d0   -0.3004   0.4197  -1.5789   0.7444
 105 Cl_a:4f0   -0.0045  -0.0051   0.0115  -0.0019
 107 Cl_a:4f0    0.0154   0.0468  -0.0193  -0.0147
 109 Cl_a:4f0    0.0412  -0.0123   0.2230  -0.0559
 120 Cl_a:5g0   -0.0094  -0.0083  -0.0327   0.0086

 Molecular orbitals for symmetry species 2  (B1 )
 ------------------------------------------------

    Orbital         1        2        3        4        5        6        7
   1 Na_a:2px    0.0001   0.9875   0.0220   0.0217   0.0402  -0.0027  -0.1087
   2 Na_a:2px    0.0001  -0.0109   0.0518   0.0099   0.0605  -0.0173  -0.0680
   3 Na_a:2px   -0.0009  -0.0012   0.0006  -0.1796  -0.2746   0.2851   0.7005
   4 Na_a:2px   -0.0002  -0.0256   0.0225   0.1811   0.9388  -0.4990  -3.0628
   5 Na_a:2px   -0.0001  -0.0025   0.0038  -0.2768  -2.1474  -2.0954   4.3435
   9 Na_a:2px    0.0000  -0.0020   0.0033   1.6093   4.0822  -2.8446  -6.9010
  10 Na_a:2px   -0.0000   0.0004  -0.0005  -1.7531  -2.7659   1.0700   2.7351
  14 Na_a:3d1+   0.0000  -0.0141   0.0294  -0.0027  -0.0263   0.0027   0.0084
  15 Na_a:3d1+  -0.0007   0.0130  -0.0363  -0.1219  -0.1782   0.3270   0.4725
  16 Na_a:3d1+  -0.0001  -0.0194   0.0249   0.0864   0.1961  -0.1780  -1.0090
  17 Na_a:3d1+  -0.0001  -0.0060   0.0024   0.0452  -0.0119  -0.1482  -1.2839
  18 Na_a:3d1+   0.0000  -0.0008   0.0025   0.5948  -0.6239  -2.2978   0.1547
  23 Na_a:4f1+   0.0001  -0.0036   0.0102  -0.0072  -0.0098   0.0167   0.0093
  25 Na_a:4f1+  -0.0004   0.0013  -0.0115  -0.0341  -0.0514   0.0843   0.1516
  27 Na_a:4f1+  -0.0001  -0.0053   0.0041  -0.0153   0.1062   0.0798  -0.4354
  29 Na_a:4f1+  -0.0000  -0.0019   0.0017   0.0465   0.0126  -0.2923  -0.0358
  33 Na_a:5g1+   0.0000  -0.0016   0.0032  -0.0056  -0.0111   0.0108   0.0230
  35 Na_a:5g1+  -0.0001   0.0013  -0.0050  -0.0077   0.0064   0.0364  -0.0046
  37 Na_a:5g1+   0.0000  -0.0018   0.0022   0.0040   0.0226  -0.0163  -0.1059
  39 Cl_a:2px   -0.9999   0.0001  -0.0027  -0.0039  -0.0027   0.0116   0.0028
  40 Cl_a:2px    0.0019   0.0028   0.9168   0.0067  -0.0366   0.0802  -0.0346
  41 Cl_a:2px    0.0000  -0.0005  -0.0031   0.0086   0.0057  -0.0245  -0.0071
  42 Cl_a:2px   -0.0005  -0.0003  -0.0013  -0.0049  -0.0055   0.0115   0.0114
  43 Cl_a:2px    0.0009   0.0048   0.0921   0.1113   0.0990  -0.2905  -0.2263
  47 Cl_a:2px    0.0005   0.0296   0.0134   0.0133  -0.3642   0.1376   2.1155
  48 Cl_a:2px    0.0000   0.0058  -0.0104  -0.7411   0.4846   4.1952   1.1775
  54 Cl_a:3d1+   0.0001  -0.0029  -0.0116  -0.0022  -0.0108   0.0049   0.0161
  55 Cl_a:3d1+  -0.0007  -0.0052  -0.0279  -0.1009  -0.1272   0.2511   0.2752
  56 Cl_a:3d1+  -0.0001  -0.0071   0.0062   0.0487   0.1011  -0.2624  -0.7238
  65 Cl_a:4f1+  -0.0001   0.0019   0.0001   0.0041  -0.0011  -0.0195  -0.0013
  67 Cl_a:4f1+   0.0003   0.0022   0.0057   0.0342   0.0704  -0.0544  -0.1419
  75 Cl_a:5g1+  -0.0000  -0.0011   0.0008  -0.0072  -0.0159   0.0117   0.0322

    Orbital         8        9       10       11       12       13
   1 Na_a:2px   -0.0362   0.1023   0.0000   0.2195  -0.1298   0.2307
   2 Na_a:2px   -0.0338   0.0850   0.0000   0.2950  -0.1559   0.2758
   3 Na_a:2px    0.0383  -0.1925   0.0000  -1.8396  -1.3923   0.6673
   4 Na_a:2px    5.3819  -1.0432  -0.0000   5.7552  -9.7065 -11.9604
   5 Na_a:2px    7.3250   1.7769   0.0000  -8.6699  -6.8913  -0.7388
   8 Na_a:2px    0.0000   0.0051  -0.0000   0.0131   0.0035   0.0050
   9 Na_a:2px    2.0949   2.4078  -0.0000   5.9841  -2.2370  -1.3233
  10 Na_a:2px   -0.2055  -0.7114   0.0000  -1.9821   0.4386   0.2324
  14 Na_a:3d1+   0.1000   0.0208  -0.0000  -0.1564  -0.2160  -0.0445
  15 Na_a:3d1+  -0.5124  -0.1248   0.0000  -1.2080  -0.5041   1.3363
  16 Na_a:3d1+   1.9426  -0.1823  -0.0000   1.0615  -3.0918  -4.3671
  17 Na_a:3d1+   3.7639  -0.5125  -0.0000  -0.2076  -7.1724  -3.4733
  18 Na_a:3d1+   2.2789   1.8461  -0.0000  -0.5289  -1.3942  -0.0867
  23 Na_a:4f1+   0.0255  -0.0425  -0.0000  -0.0467  -0.0454  -0.0590
  24 Na_a:4f3+  -0.0000   0.0000  -0.0526   0.0000   0.0000  -0.0000
  25 Na_a:4f1+  -0.1210   0.1008   0.0000  -0.4349  -0.4346   0.5145
  26 Na_a:4f3+   0.0000  -0.0000   0.1658  -0.0000  -0.0000   0.0000
  27 Na_a:4f1+   0.7907  -0.4979  -0.0000   0.6379  -1.3878  -2.4818
  28 Na_a:4f3+  -0.0000   0.0000  -0.4247  -0.0000   0.0000  -0.0000
  29 Na_a:4f1+   1.0432   1.3745  -0.0000  -0.5452  -2.9010   0.0384
  30 Na_a:4f3+   0.0000  -0.0000   1.2265   0.0000  -0.0000   0.0000
  33 Na_a:5g1+   0.0010   0.0015  -0.0000  -0.0722  -0.0566   0.0565
  35 Na_a:5g1+  -0.0496  -0.0326   0.0000   0.0086  -0.0770  -0.0237
  36 Na_a:5g3+  -0.0000   0.0000   0.0381  -0.0000   0.0000   0.0000
  37 Na_a:5g1+   0.2617  -0.0334  -0.0000   0.1053  -0.4668  -0.3106
  38 Na_a:5g3+   0.0000  -0.0000  -0.0983  -0.0000  -0.0000   0.0000
  39 Cl_a:2px    0.0040  -0.0151   0.0000  -0.0183  -0.0393  -0.0182
  40 Cl_a:2px    0.0449   0.0105   0.0000  -0.1015  -0.0451  -0.1171
  41 Cl_a:2px   -0.0080   0.0330  -0.0000   0.0400   0.0880   0.0363
  42 Cl_a:2px    0.0015  -0.0080  -0.0000  -0.0417  -0.0594   0.0107
  43 Cl_a:2px    0.0644   0.2053  -0.0000   0.8070   1.2773  -0.2630
  47 Cl_a:2px   -5.7722   1.0192   0.0000  -1.5240  11.9748  11.3433
  48 Cl_a:2px  -10.9259  -4.1070   0.0000   1.7233   9.8832   3.4878
  53 Cl_a:3d1+   0.0006   0.0038   0.0000   0.0090  -0.0065  -0.0178
  54 Cl_a:3d1+  -0.0118  -0.0032  -0.0000  -0.0510   0.0298   0.0085
  55 Cl_a:3d1+  -0.0343  -0.0510   0.0000  -0.9963  -1.3446   0.5192
  56 Cl_a:3d1+   2.0662  -0.4850  -0.0000   0.8758  -2.3139  -4.9387
  63 Cl_a:4f1+  -0.0092   0.0001  -0.0000   0.0008  -0.0117   0.0219
  65 Cl_a:4f1+   0.0233   0.0061   0.0000   0.0179   0.0555  -0.0691
  66 Cl_a:4f3+  -0.0000   0.0000  -0.0122  -0.0000   0.0000   0.0000
  67 Cl_a:4f1+  -0.0353   0.0117  -0.0000   0.4356   0.3305  -0.1154
  68 Cl_a:4f3+   0.0000  -0.0000   0.0153   0.0000  -0.0000  -0.0000
  73 Cl_a:5g1+   0.0033  -0.0029  -0.0000   0.0139  -0.0048  -0.0122
  75 Cl_a:5g1+   0.0040  -0.0021   0.0000  -0.0962  -0.0572   0.0398

 Molecular orbitals for symmetry species 3  (B2 )
 ------------------------------------------------

    Orbital         1        2        3        4        5        6        7
   1 Na_a:2py    0.0001   0.9875   0.0220   0.0217   0.0402  -0.0027  -0.1087
   2 Na_a:2py    0.0001  -0.0109   0.0518   0.0099   0.0605  -0.0173  -0.0680
   3 Na_a:2py   -0.0009  -0.0012   0.0006  -0.1796  -0.2746   0.2851   0.7005
   4 Na_a:2py   -0.0002  -0.0256   0.0225   0.1811   0.9388  -0.4990  -3.0628
   5 Na_a:2py   -0.0001  -0.0025   0.0038  -0.2768  -2.1474  -2.0954   4.3435
   9 Na_a:2py    0.0000  -0.0020   0.0033   1.6093   4.0822  -2.8446  -6.9010
  10 Na_a:2py   -0.0000   0.0004  -0.0005  -1.7531  -2.7659   1.0700   2.7351
  14 Na_a:3d1-   0.0000  -0.0141   0.0294  -0.0027  -0.0263   0.0027   0.0084
  15 Na_a:3d1-  -0.0007   0.0130  -0.0363  -0.1219  -0.1782   0.3270   0.4725
  16 Na_a:3d1-  -0.0001  -0.0194   0.0249   0.0864   0.1961  -0.1780  -1.0090
  17 Na_a:3d1-  -0.0001  -0.0060   0.0024   0.0452  -0.0119  -0.1482  -1.2839
  18 Na_a:3d1-   0.0000  -0.0008   0.0025   0.5948  -0.6239  -2.2978   0.1547
  24 Na_a:4f1-   0.0001  -0.0036   0.0102  -0.0072  -0.0098   0.0167   0.0093
  26 Na_a:4f1-  -0.0004   0.0013  -0.0115  -0.0341  -0.0514   0.0843   0.1516
  28 Na_a:4f1-  -0.0001  -0.0053   0.0041  -0.0153   0.1062   0.0798  -0.4354
  30 Na_a:4f1-  -0.0000  -0.0019   0.0017   0.0465   0.0126  -0.2923  -0.0358
  34 Na_a:5g1-   0.0000  -0.0016   0.0032  -0.0056  -0.0111   0.0108   0.0230
  36 Na_a:5g1-  -0.0001   0.0013  -0.0050  -0.0077   0.0064   0.0364  -0.0046
  38 Na_a:5g1-   0.0000  -0.0018   0.0022   0.0040   0.0226  -0.0163  -0.1059
  39 Cl_a:2py   -0.9999   0.0001  -0.0027  -0.0039  -0.0027   0.0116   0.0028
  40 Cl_a:2py    0.0019   0.0028   0.9168   0.0067  -0.0366   0.0802  -0.0346
  41 Cl_a:2py    0.0000  -0.0005  -0.0031   0.0086   0.0057  -0.0245  -0.0071
  42 Cl_a:2py   -0.0005  -0.0003  -0.0013  -0.0049  -0.0055   0.0115   0.0114
  43 Cl_a:2py    0.0009   0.0048   0.0921   0.1113   0.0990  -0.2905  -0.2263
  47 Cl_a:2py    0.0005   0.0296   0.0134   0.0133  -0.3642   0.1376   2.1155
  48 Cl_a:2py    0.0000   0.0058  -0.0104  -0.7411   0.4846   4.1952   1.1775
  54 Cl_a:3d1-   0.0001  -0.0029  -0.0116  -0.0022  -0.0108   0.0049   0.0161
  55 Cl_a:3d1-  -0.0007  -0.0052  -0.0279  -0.1009  -0.1272   0.2511   0.2752
  56 Cl_a:3d1-  -0.0001  -0.0071   0.0062   0.0487   0.1011  -0.2624  -0.7238
  66 Cl_a:4f1-  -0.0001   0.0019   0.0001   0.0041  -0.0011  -0.0195  -0.0013
  68 Cl_a:4f1-   0.0003   0.0022   0.0057   0.0342   0.0704  -0.0544  -0.1419
  76 Cl_a:5g1-  -0.0000  -0.0011   0.0008  -0.0072  -0.0159   0.0117   0.0322

    Orbital         8        9       10       11       12       13
   1 Na_a:2py   -0.0362   0.1023   0.0000   0.2195   0.1298   0.2307
   2 Na_a:2py   -0.0338   0.0850   0.0000   0.2950   0.1559   0.2758
   3 Na_a:2py    0.0383  -0.1925  -0.0000  -1.8396   1.3923   0.6673
   4 Na_a:2py    5.3819  -1.0432   0.0000   5.7552   9.7065 -11.9604
   5 Na_a:2py    7.3250   1.7769  -0.0000  -8.6699   6.8913  -0.7388
   8 Na_a:2py    0.0000   0.0051   0.0000   0.0131  -0.0035   0.0050
   9 Na_a:2py    2.0949   2.4078   0.0000   5.9841   2.2370  -1.3233
  10 Na_a:2py   -0.2055  -0.7114  -0.0000  -1.9821  -0.4386   0.2324
  14 Na_a:3d1-   0.1000   0.0208   0.0000  -0.1564   0.2160  -0.0445
  15 Na_a:3d1-  -0.5124  -0.1248  -0.0000  -1.2080   0.5041   1.3363
  16 Na_a:3d1-   1.9426  -0.1823   0.0000   1.0615   3.0918  -4.3671
  17 Na_a:3d1-   3.7639  -0.5125   0.0000  -0.2076   7.1724  -3.4733
  18 Na_a:3d1-   2.2789   1.8461   0.0000  -0.5289   1.3942  -0.0867
  23 Na_a:4f3-  -0.0000   0.0000  -0.0526   0.0000  -0.0000  -0.0000
  24 Na_a:4f1-   0.0255  -0.0425   0.0000  -0.0467   0.0454  -0.0590
  25 Na_a:4f3-   0.0000  -0.0000   0.1658  -0.0000   0.0000   0.0000
  26 Na_a:4f1-  -0.1210   0.1008  -0.0000  -0.4349   0.4346   0.5145
  27 Na_a:4f3-  -0.0000   0.0000  -0.4247   0.0000  -0.0000  -0.0000
  28 Na_a:4f1-   0.7907  -0.4979   0.0000   0.6379   1.3878  -2.4818
  29 Na_a:4f3-   0.0000  -0.0000   1.2265  -0.0000  -0.0000   0.0000
  30 Na_a:4f1-   1.0432   1.3745   0.0000  -0.5452   2.9010   0.0384
  34 Na_a:5g1-   0.0010   0.0015   0.0000  -0.0722   0.0566   0.0565
  35 Na_a:5g3-  -0.0000   0.0000   0.0381  -0.0000  -0.0000  -0.0000
  36 Na_a:5g1-  -0.0496  -0.0326  -0.0000   0.0086   0.0770  -0.0237
  37 Na_a:5g3-   0.0000  -0.0000  -0.0983   0.0000   0.0000   0.0000
  38 Na_a:5g1-   0.2617  -0.0334   0.0000   0.1053   0.4668  -0.3106
  39 Cl_a:2py    0.0040  -0.0151  -0.0000  -0.0183   0.0393  -0.0182
  40 Cl_a:2py    0.0449   0.0105  -0.0000  -0.1015   0.0451  -0.1171
  41 Cl_a:2py   -0.0080   0.0330   0.0000   0.0400  -0.0880   0.0363
  42 Cl_a:2py    0.0015  -0.0080   0.0000  -0.0417   0.0594   0.0107
  43 Cl_a:2py    0.0644   0.2053   0.0000   0.8070  -1.2773  -0.2630
  47 Cl_a:2py   -5.7722   1.0192  -0.0000  -1.5240 -11.9748  11.3433
  48 Cl_a:2py  -10.9259  -4.1070  -0.0000   1.7233  -9.8832   3.4878
  53 Cl_a:3d1-   0.0006   0.0038  -0.0000   0.0090   0.0065  -0.0178
  54 Cl_a:3d1-  -0.0118  -0.0032   0.0000  -0.0510  -0.0298   0.0085
  55 Cl_a:3d1-  -0.0343  -0.0510   0.0000  -0.9963   1.3446   0.5192
  56 Cl_a:3d1-   2.0662  -0.4850   0.0000   0.8758   2.3139  -4.9387
  64 Cl_a:4f1-  -0.0092   0.0001   0.0000   0.0008   0.0117   0.0219
  65 Cl_a:4f3-   0.0000  -0.0000  -0.0122   0.0000   0.0000   0.0000
  66 Cl_a:4f1-   0.0233   0.0061  -0.0000   0.0179  -0.0555  -0.0691
  67 Cl_a:4f3-  -0.0000   0.0000   0.0153  -0.0000  -0.0000  -0.0000
  68 Cl_a:4f1-  -0.0353   0.0117   0.0000   0.4356  -0.3305  -0.1154
  74 Cl_a:5g1-   0.0033  -0.0029   0.0000   0.0139   0.0048  -0.0122
  76 Cl_a:5g1-   0.0040  -0.0021  -0.0000  -0.0962   0.0572   0.0398

 Molecular orbitals for symmetry species 4  (A2 )
 ------------------------------------------------

    Orbital         1        2        3        4        5        6        7
   4 Na_a:3d2-   0.0419  -0.0983  -0.0398   0.2878   0.2390  -0.0849   0.0000
   5 Na_a:3d2-  -0.1441   0.4251   0.1869  -0.9634  -0.9214   0.1630   0.0000
   6 Na_a:3d2-   0.2591  -0.7468  -0.2547   1.7558   2.2790  -0.7093  -0.0000
   7 Na_a:3d2-  -0.6304   1.2668   1.9365  -2.6380   0.5610   0.8877  -0.0000
   8 Na_a:3d2-   1.2952  -0.8527  -0.7225   0.6998   0.1458  -0.2271   0.0000
  11 Na_a:4f2-   0.0005   0.0218  -0.0152  -0.0499  -0.0235  -0.0585   0.0000
  12 Na_a:4f2-  -0.0036  -0.0554   0.0364   0.1147   0.0007   0.1308   0.0000
  13 Na_a:4f2-   0.0044   0.1146  -0.1054  -0.9452   0.2132  -0.7888  -0.0000
  14 Na_a:4f2-  -0.2374  -0.9516   1.1765  -0.3102   1.1490   0.7157  -0.0000
  17 Na_a:5g4-   0.0000   0.0000   0.0000   0.0000  -0.0000  -0.0000   0.1319
  18 Na_a:5g2-  -0.0082   0.0015   0.0218  -0.0034  -0.0003   0.1197   0.0000
  19 Na_a:5g4-  -0.0000  -0.0000  -0.0000  -0.0000   0.0000   0.0000  -0.5109
  20 Na_a:5g2-   0.0299   0.0179  -0.0994   0.0118  -0.0901  -0.5006   0.0000
  21 Na_a:5g4-   0.0000   0.0000   0.0000   0.0000  -0.0000  -0.0000   1.2972
  22 Na_a:5g2-  -0.0532  -0.0308   0.1986  -0.2202   0.5332   1.2017  -0.0000
  26 Cl_a:3d2-   0.0010   0.0017  -0.0018   0.0080  -0.0102  -0.0014   0.0000
  27 Cl_a:3d2-  -0.0021  -0.0043   0.0154  -0.0031   0.0127  -0.0075  -0.0000
  28 Cl_a:3d2-   0.0092   0.0161  -0.0318   0.0507  -0.0786  -0.0037   0.0000
  29 Cl_a:3d2-  -0.0336  -0.0672   0.1644  -0.0904   0.2705   0.1324  -0.0000
  30 Cl_a:3d2-   0.1814   0.3652  -1.0253   1.9508  -3.1196  -0.5612   0.0000
  34 Cl_a:4f2-  -0.0002  -0.0043   0.0060  -0.0281   0.0418  -0.0272  -0.0000
  35 Cl_a:4f2-  -0.0012   0.0111  -0.0144   0.0822  -0.1266   0.1078   0.0000
  36 Cl_a:4f2-   0.0014  -0.0047   0.0176  -0.1691   0.1844  -0.2429  -0.0000
  42 Cl_a:5g2-   0.0000   0.0011  -0.0004  -0.0020  -0.0042  -0.0140   0.0000
  44 Cl_a:5g2-   0.0021  -0.0058  -0.0031   0.0105   0.0159   0.0093  -0.0000

    Orbital         8        9       10
   3 Na_a:3d2-   0.0023  -0.0348  -0.0022
   4 Na_a:3d2-   0.1128   0.6558   0.0665
   5 Na_a:3d2-  -0.4019  -3.7174  -0.2180
   6 Na_a:3d2-   1.9859   4.0206  -0.3170
   7 Na_a:3d2-   1.4908  -1.3271   0.1499
   8 Na_a:3d2-  -0.1453   0.4247  -0.0071
  11 Na_a:4f2-   0.1082  -0.0616  -0.1381
  12 Na_a:4f2-  -0.3707   0.2752   0.6006
  13 Na_a:4f2-   2.5510   0.2120  -1.1765
  14 Na_a:4f2-   0.5066   0.1376   0.3976
  18 Na_a:5g2-   0.0745  -0.0300  -0.0368
  20 Na_a:5g2-  -0.3697   0.0335   0.0515
  22 Na_a:5g2-   1.8937   0.2654  -0.4812
  25 Cl_a:3d2-   0.0010  -0.0030   0.0179
  26 Cl_a:3d2-   0.0188  -0.0012   0.0190
  27 Cl_a:3d2-  -0.0139  -0.0335   0.1825
  28 Cl_a:3d2-   0.1419   0.0474  -0.1896
  29 Cl_a:3d2-  -0.3870  -0.2996   1.6155
  30 Cl_a:3d2-  -3.7391  -0.4853  -0.3643
  34 Cl_a:4f2-   0.0413   0.0143   0.0567
  35 Cl_a:4f2-  -0.1270  -0.0388  -0.1755
  36 Cl_a:4f2-   0.2141   0.0207   0.3084
  42 Cl_a:5g2-  -0.0237  -0.0129   0.0193
  44 Cl_a:5g2-   0.0331   0.0488  -0.0239

  Total CPU  time used in SIRIUS :  1 minute   1 second 
  Total wall time used in SIRIUS :  1 minute   1 second 

 
     Date and time (Linux)  : Wed Jan 11 15:40:12 2023
     Host name              : cn020                                   


                     .---------------------------------------.
                     | End of Wave Function Section (SIRIUS) |
                     `---------------------------------------'



                 .------------------------------------------------.
                 | Starting in Dynamic Property Section (RESPONS) |
                 `------------------------------------------------'


 ----------------------------------------------------------------------------------------
  RESPONSE  -  an MCSCF, MC-srDFT, DFT, SOPPA and SOPPA-srDFT response property program
 ----------------------------------------------------------------------------------------


 -------- OUTPUT FROM RESPONSE INPUT PROCESSING --------




 Linear Response calculation
 ---------------------------

 Print level                                    : IPRLR  =   2
 Maximum number of iterations                   : MAXITL =  60
 Threshold for relative convergence             : THCLR  = 1.000D-03
 Maximum iterations in optimal orbital algorithm: MAXITO =   5

  9 B-frequencies  0.000000D+00  1.227675D-02  2.455350D-02  3.683025D-02  4.910700D-02
  6.138375D-02  7.366050D-02  8.593725D-02  9.821400D-02

    1 second order properties calculated with symmetry no.    1 and labels:

          ZDIPLEN 

    1 second order properties calculated with symmetry no.    2 and labels:

          XDIPLEN 

    1 second order properties calculated with symmetry no.    3 and labels:

          YDIPLEN 


   SCF energy         :     -621.459677685037491
 -- inactive part     :     -663.375711128204330
 -- nuclear repulsion :       41.916033443166796


                     ***************************************
                     *** RHF response calculation (TDHF) ***
                     ***************************************

 ----------------------------------------------------------------
 ----- Linear response calculation
 ----- Symmetry of excitation/property operator(s)    1  ( A1 )
 ----------------------------------------------------------------

 Number of excitations of this symmetry            0
 Number of response properties of this symmetry    1
 Number of C6/C8 properties of this symmetry       0


 Perturbation symmetry.     KSYMOP:           1
 Perturbation spin symmetry.TRPLET:           F
 Orbital variables.         KZWOPT:        1350
 Configuration variables.   KZCONF:           0
 Total number of variables. KZVAR :        1350


 RSPLR -- linear response calculation for symmetry 1  ( A1 )
 RSPLR -- operator label : ZDIPLEN 
 RSPLR -- operator spin  :   0
 RSPLR -- frequencies    :     0.000000  0.012277  0.024553  0.036830  0.049107
                               0.061384  0.073660  0.085937  0.098214



 ---  SOLVING SETS OF LINEAR EQUATIONS FOR LINEAR RESPONSE PROPERTIES ---

 Operator symmetry = 1  ( A1 ); triplet =   F


 ** RSPCTL MICROITERATION NUMBER    1

       No.  Residual tot.,    conf., and orb.    Bnorm      Frequency 
      ----------------------------------------------------------------
         1    2.57094D+00  0.00D+00  2.57D+00  5.38D+00    0.00000D+00
         2    2.57283D+00  0.00D+00  2.57D+00  5.40D+00    1.22767D-02
         3    2.57854D+00  0.00D+00  2.58D+00  5.44D+00    2.45535D-02
         4    2.58822D+00  0.00D+00  2.59D+00  5.52D+00    3.68302D-02
         5    2.60212D+00  0.00D+00  2.60D+00  5.63D+00    4.91070D-02
         6    2.62062D+00  0.00D+00  2.62D+00  5.79D+00    6.13838D-02
         7    2.64427D+00  0.00D+00  2.64D+00  5.98D+00    7.36605D-02
         8    2.67387D+00  0.00D+00  2.67D+00  6.23D+00    8.59372D-02
         9    2.71055D+00  0.00D+00  2.71D+00  6.54D+00    9.82140D-02

 ** RSPCTL MICROITERATION NUMBER    2

       No.  Residual tot.,    conf., and orb.    Bnorm      Frequency 
      ----------------------------------------------------------------
         1    8.15902D-01  0.00D+00  8.16D-01  5.75D+00    0.00000D+00
         2    8.17359D-01  0.00D+00  8.17D-01  5.77D+00    1.22767D-02
         3    8.21782D-01  0.00D+00  8.22D-01  5.82D+00    2.45535D-02
         4    8.29327D-01  0.00D+00  8.29D-01  5.91D+00    3.68302D-02
         5    8.40271D-01  0.00D+00  8.40D-01  6.03D+00    4.91070D-02
         6    8.55041D-01  0.00D+00  8.55D-01  6.21D+00    6.13838D-02
         7    8.74263D-01  0.00D+00  8.74D-01  6.43D+00    7.36605D-02
         8    8.98843D-01  0.00D+00  8.99D-01  6.71D+00    8.59372D-02
         9    9.30092D-01  0.00D+00  9.30D-01  7.07D+00    9.82140D-02

 ** RSPCTL MICROITERATION NUMBER    3

       No.  Residual tot.,    conf., and orb.    Bnorm      Frequency 
      ----------------------------------------------------------------
         1    1.67663D-01  0.00D+00  1.68D-01  5.78D+00    0.00000D+00
         2    1.68178D-01  0.00D+00  1.68D-01  5.80D+00    1.22767D-02
         3    1.69743D-01  0.00D+00  1.70D-01  5.85D+00    2.45535D-02
         4    1.72426D-01  0.00D+00  1.72D-01  5.94D+00    3.68302D-02
         5    1.76343D-01  0.00D+00  1.76D-01  6.08D+00    4.91070D-02
         6    1.81679D-01  0.00D+00  1.82D-01  6.25D+00    6.13838D-02
         7    1.88703D-01  0.00D+00  1.89D-01  6.48D+00    7.36605D-02
         8    1.97807D-01  0.00D+00  1.98D-01  6.78D+00    8.59372D-02
         9    2.09565D-01  0.00D+00  2.10D-01  7.15D+00    9.82140D-02

 ** RSPCTL MICROITERATION NUMBER    4

       No.  Residual tot.,    conf., and orb.    Bnorm      Frequency 
      ----------------------------------------------------------------
         1    2.80559D-02  0.00D+00  2.81D-02  5.78D+00    0.00000D+00
         2    2.81897D-02  0.00D+00  2.82D-02  5.80D+00    1.22767D-02
         3    2.85971D-02  0.00D+00  2.86D-02  5.86D+00    2.45535D-02
         4    2.92972D-02  0.00D+00  2.93D-02  5.95D+00    3.68302D-02
         5    3.03237D-02  0.00D+00  3.03D-02  6.08D+00    4.91070D-02
         6    3.17290D-02  0.00D+00  3.17D-02  6.25D+00    6.13838D-02
         7    3.35904D-02  0.00D+00  3.36D-02  6.48D+00    7.36605D-02
         8    3.60206D-02  0.00D+00  3.60D-02  6.78D+00    8.59372D-02
         9    3.91848D-02  0.00D+00  3.92D-02  7.15D+00    9.82140D-02

 ** RSPCTL MICROITERATION NUMBER    5

       No.  Residual tot.,    conf., and orb.    Bnorm      Frequency 
      ----------------------------------------------------------------
         1    3.77308D-03  0.00D+00  3.77D-03  5.78D+00    0.00000D+00
         2    3.79472D-03  0.00D+00  3.79D-03  5.80D+00    1.22767D-02
         3    3.86070D-03  0.00D+00  3.86D-03  5.86D+00    2.45535D-02
         4    3.97440D-03  0.00D+00  3.97D-03  5.95D+00    3.68302D-02
         5    4.14185D-03  0.00D+00  4.14D-03  6.08D+00    4.91070D-02
         6    4.37246D-03  0.00D+00  4.37D-03  6.25D+00    6.13838D-02
         7    4.68022D-03  0.00D+00  4.68D-03  6.48D+00    7.36605D-02
         8    5.08573D-03  0.00D+00  5.09D-03  6.78D+00    8.59372D-02
         9    5.61954D-03  0.00D+00  5.62D-03  7.15D+00    9.82140D-02

 *** THE REQUESTED    9 SOLUTION VECTORS CONVERGED

 Convergence of RSP solution vectors, threshold = 1.00D-03
 ---------------------------------------------------------------
 (dimension of paired reduced space:   90)
 RSP solution vector no.    1; norm of residual   6.52D-04
 RSP solution vector no.    2; norm of residual   6.54D-04
 RSP solution vector no.    3; norm of residual   6.59D-04
 RSP solution vector no.    4; norm of residual   6.68D-04
 RSP solution vector no.    5; norm of residual   6.82D-04
 RSP solution vector no.    6; norm of residual   6.99D-04
 RSP solution vector no.    7; norm of residual   7.22D-04
 RSP solution vector no.    8; norm of residual   7.50D-04
 RSP solution vector no.    9; norm of residual   7.86D-04

 *** RSPCTL MICROITERATIONS CONVERGED


           Final output of second order properties from linear response
           ------------------------------------------------------------


@ Spin symmetry of operators: singlet

 Note that minus the linear response function: - << A; B >>(omega) is printed.
 The results are of quadratic accuracy using Sellers formula.

@ FREQUENCY INDEPENDENT SECOND ORDER PROPERTIES

@ -<< ZDIPLEN  ; ZDIPLEN  >> =  2.865458331895E+01

@ FREQUENCY DEPENDENT SECOND ORDER PROPERTIES WITH FREQUENCY :

@    a.u.:  1.2276750D-02
@    cm-1:  2.6944352D+03
@    eV  :  3.3406736D-01
@  kJ/mol:  3.2232602D+01
@    nm  :  3.7113530D+03

@ -<< ZDIPLEN  ; ZDIPLEN  >> =  2.869204990254E+01

@ FREQUENCY DEPENDENT SECOND ORDER PROPERTIES WITH FREQUENCY :

@    a.u.:  2.4553500D-02
@    cm-1:  5.3888703D+03
@    eV  :  6.6813472D-01
@  kJ/mol:  6.4465204D+01
@    nm  :  1.8556765D+03

@ -<< ZDIPLEN  ; ZDIPLEN  >> =  2.880545609984E+01

@ FREQUENCY DEPENDENT SECOND ORDER PROPERTIES WITH FREQUENCY :

@    a.u.:  3.6830250D-02
@    cm-1:  8.0833055D+03
@    eV  :  1.0022021D+00
@  kJ/mol:  9.6697806D+01
@    nm  :  1.2371177D+03

@ -<< ZDIPLEN  ; ZDIPLEN  >> =  2.899790558155E+01

@ FREQUENCY DEPENDENT SECOND ORDER PROPERTIES WITH FREQUENCY :

@    a.u.:  4.9107000D-02
@    cm-1:  1.0777741D+04
@    eV  :  1.3362694D+00
@  kJ/mol:  1.2893041D+02
@    nm  :  9.2783825D+02

@ -<< ZDIPLEN  ; ZDIPLEN  >> =  2.927486690402E+01

@ FREQUENCY DEPENDENT SECOND ORDER PROPERTIES WITH FREQUENCY :

@    a.u.:  6.1383750D-02
@    cm-1:  1.3472176D+04
@    eV  :  1.6703368D+00
@  kJ/mol:  1.6116301D+02
@    nm  :  7.4227060D+02

@ -<< ZDIPLEN  ; ZDIPLEN  >> =  2.964467290023E+01

@ FREQUENCY DEPENDENT SECOND ORDER PROPERTIES WITH FREQUENCY :

@    a.u.:  7.3660500D-02
@    cm-1:  1.6166611D+04
@    eV  :  2.0044042D+00
@  kJ/mol:  1.9339561D+02
@    nm  :  6.1855883D+02

@ -<< ZDIPLEN  ; ZDIPLEN  >> =  3.011934915941E+01

@ FREQUENCY DEPENDENT SECOND ORDER PROPERTIES WITH FREQUENCY :

@    a.u.:  8.5937250D-02
@    cm-1:  1.8861046D+04
@    eV  :  2.3384715D+00
@  kJ/mol:  2.2562822D+02
@    nm  :  5.3019329D+02

@ -<< ZDIPLEN  ; ZDIPLEN  >> =  3.071595152035E+01

@ FREQUENCY DEPENDENT SECOND ORDER PROPERTIES WITH FREQUENCY :

@    a.u.:  9.8214000D-02
@    cm-1:  2.1555481D+04
@    eV  :  2.6725389D+00
@  kJ/mol:  2.5786082D+02
@    nm  :  4.6391913D+02

@ -<< ZDIPLEN  ; ZDIPLEN  >> =  3.145874561299E+01


 Time used in linear response calculation is     50.21 CPU seconds for symmetry 1
 ----------------------------------------------------------------
 ----- Linear response calculation
 ----- Symmetry of excitation/property operator(s)    2  ( B1 )
 ----------------------------------------------------------------

 Number of excitations of this symmetry            0
 Number of response properties of this symmetry    1
 Number of C6/C8 properties of this symmetry       0


 Perturbation symmetry.     KSYMOP:           2
 Perturbation spin symmetry.TRPLET:           F
 Orbital variables.         KZWOPT:        1058
 Configuration variables.   KZCONF:           0
 Total number of variables. KZVAR :        1058


 RSPLR -- linear response calculation for symmetry 2  ( B1 )
 RSPLR -- operator label : XDIPLEN 
 RSPLR -- operator spin  :   0
 RSPLR -- frequencies    :     0.000000  0.012277  0.024553  0.036830  0.049107
                               0.061384  0.073660  0.085937  0.098214



 ---  SOLVING SETS OF LINEAR EQUATIONS FOR LINEAR RESPONSE PROPERTIES ---

 Operator symmetry = 2  ( B1 ); triplet =   F


 ** RSPCTL MICROITERATION NUMBER    1

       No.  Residual tot.,    conf., and orb.    Bnorm      Frequency 
      ----------------------------------------------------------------
         1    1.82261D+00  0.00D+00  1.82D+00  5.14D+00    0.00000D+00
         2    1.82345D+00  0.00D+00  1.82D+00  5.15D+00    1.22767D-02
         3    1.82598D+00  0.00D+00  1.83D+00  5.19D+00    2.45535D-02
         4    1.83025D+00  0.00D+00  1.83D+00  5.26D+00    3.68302D-02
         5    1.83634D+00  0.00D+00  1.84D+00  5.35D+00    4.91070D-02
         6    1.84437D+00  0.00D+00  1.84D+00  5.48D+00    6.13838D-02
         7    1.85452D+00  0.00D+00  1.85D+00  5.64D+00    7.36605D-02
         8    1.86706D+00  0.00D+00  1.87D+00  5.85D+00    8.59372D-02
         9    1.88236D+00  0.00D+00  1.88D+00  6.11D+00    9.82140D-02

 ** RSPCTL MICROITERATION NUMBER    2

       No.  Residual tot.,    conf., and orb.    Bnorm      Frequency 
      ----------------------------------------------------------------
         1    4.64262D-01  0.00D+00  4.64D-01  5.40D+00    0.00000D+00
         2    4.64423D-01  0.00D+00  4.64D-01  5.41D+00    1.22767D-02
         3    4.64907D-01  0.00D+00  4.65D-01  5.46D+00    2.45535D-02
         4    4.65717D-01  0.00D+00  4.66D-01  5.53D+00    3.68302D-02
         5    4.66856D-01  0.00D+00  4.67D-01  5.64D+00    4.91070D-02
         6    4.68335D-01  0.00D+00  4.68D-01  5.79D+00    6.13838D-02
         7    4.70172D-01  0.00D+00  4.70D-01  5.99D+00    7.36605D-02
         8    4.72405D-01  0.00D+00  4.72D-01  6.24D+00    8.59372D-02
         9    4.75111D-01  0.00D+00  4.75D-01  6.55D+00    9.82140D-02

 ** RSPCTL MICROITERATION NUMBER    3

       No.  Residual tot.,    conf., and orb.    Bnorm      Frequency 
      ----------------------------------------------------------------
         1    4.67482D-02  0.00D+00  4.67D-02  5.40D+00    0.00000D+00
         2    4.67411D-02  0.00D+00  4.67D-02  5.42D+00    1.22767D-02
         3    4.67202D-02  0.00D+00  4.67D-02  5.46D+00    2.45535D-02
         4    4.66871D-02  0.00D+00  4.67D-02  5.54D+00    3.68302D-02
         5    4.66453D-02  0.00D+00  4.66D-02  5.65D+00    4.91070D-02
         6    4.66029D-02  0.00D+00  4.66D-02  5.80D+00    6.13838D-02
         7    4.65769D-02  0.00D+00  4.66D-02  6.00D+00    7.36605D-02
         8    4.66018D-02  0.00D+00  4.66D-02  6.25D+00    8.59372D-02
         9    4.67489D-02  0.00D+00  4.67D-02  6.57D+00    9.82140D-02

 ** RSPCTL MICROITERATION NUMBER    4

       No.  Residual tot.,    conf., and orb.    Bnorm      Frequency 
      ----------------------------------------------------------------
         1    5.74296D-03  0.00D+00  5.74D-03  5.40D+00    0.00000D+00
         2    5.76158D-03  0.00D+00  5.76D-03  5.42D+00    1.22767D-02
         3    5.81947D-03  0.00D+00  5.82D-03  5.46D+00    2.45535D-02
         4    5.92310D-03  0.00D+00  5.92D-03  5.54D+00    3.68302D-02
         5    6.08451D-03  0.00D+00  6.08D-03  5.65D+00    4.91070D-02
         6    6.32332D-03  0.00D+00  6.32D-03  5.80D+00    6.13838D-02
         7    6.67029D-03  0.00D+00  6.67D-03  6.00D+00    7.36605D-02
         8    7.17305D-03  0.00D+00  7.17D-03  6.25D+00    8.59372D-02
         9    7.90552D-03  0.00D+00  7.91D-03  6.57D+00    9.82140D-02

 ** RSPCTL MICROITERATION NUMBER    5

       No.  Residual tot.,    conf., and orb.    Bnorm      Frequency 
      ----------------------------------------------------------------
         1    8.40337D-04  0.00D+00  8.40D-04  5.40D+00    0.00000D+00
         2    8.44208D-04  0.00D+00  8.44D-04  5.42D+00    1.22767D-02
         3    8.56346D-04  0.00D+00  8.56D-04  5.46D+00    2.45535D-02
         4    8.78408D-04  0.00D+00  8.78D-04  5.54D+00    3.68302D-02
         5    9.13486D-04  0.00D+00  9.13D-04  5.65D+00    4.91070D-02
         6    9.66639D-04  0.00D+00  9.67D-04  5.80D+00    6.13838D-02
         7    1.04577D-03  0.00D+00  1.05D-03  6.00D+00    7.36605D-02
         8    1.16303D-03  0.00D+00  1.16D-03  6.25D+00    8.59372D-02
         9    1.33713D-03  0.00D+00  1.34D-03  6.57D+00    9.82140D-02

 *** THE REQUESTED    9 SOLUTION VECTORS CONVERGED

 Convergence of RSP solution vectors, threshold = 1.00D-03
 ---------------------------------------------------------------
 (dimension of paired reduced space:   90)
 RSP solution vector no.    1; norm of residual   1.56D-04
 RSP solution vector no.    2; norm of residual   1.56D-04
 RSP solution vector no.    3; norm of residual   1.57D-04
 RSP solution vector no.    4; norm of residual   1.59D-04
 RSP solution vector no.    5; norm of residual   1.62D-04
 RSP solution vector no.    6; norm of residual   1.67D-04
 RSP solution vector no.    7; norm of residual   1.74D-04
 RSP solution vector no.    8; norm of residual   1.86D-04
 RSP solution vector no.    9; norm of residual   2.04D-04

 *** RSPCTL MICROITERATIONS CONVERGED


           Final output of second order properties from linear response
           ------------------------------------------------------------


@ Spin symmetry of operators: singlet

 Note that minus the linear response function: - << A; B >>(omega) is printed.
 The results are of quadratic accuracy using Sellers formula.

@ FREQUENCY INDEPENDENT SECOND ORDER PROPERTIES

@ -<< XDIPLEN  ; XDIPLEN  >> =  2.602315017879E+01

@ FREQUENCY DEPENDENT SECOND ORDER PROPERTIES WITH FREQUENCY :

@    a.u.:  1.2276750D-02
@    cm-1:  2.6944352D+03
@    eV  :  3.3406736D-01
@  kJ/mol:  3.2232602D+01
@    nm  :  3.7113530D+03

@ -<< XDIPLEN  ; XDIPLEN  >> =  2.605393727146E+01

@ FREQUENCY DEPENDENT SECOND ORDER PROPERTIES WITH FREQUENCY :

@    a.u.:  2.4553500D-02
@    cm-1:  5.3888703D+03
@    eV  :  6.6813472D-01
@  kJ/mol:  6.4465204D+01
@    nm  :  1.8556765D+03

@ -<< XDIPLEN  ; XDIPLEN  >> =  2.614707330574E+01

@ FREQUENCY DEPENDENT SECOND ORDER PROPERTIES WITH FREQUENCY :

@    a.u.:  3.6830250D-02
@    cm-1:  8.0833055D+03
@    eV  :  1.0022021D+00
@  kJ/mol:  9.6697806D+01
@    nm  :  1.2371177D+03

@ -<< XDIPLEN  ; XDIPLEN  >> =  2.630494923070E+01

@ FREQUENCY DEPENDENT SECOND ORDER PROPERTIES WITH FREQUENCY :

@    a.u.:  4.9107000D-02
@    cm-1:  1.0777741D+04
@    eV  :  1.3362694D+00
@  kJ/mol:  1.2893041D+02
@    nm  :  9.2783825D+02

@ -<< XDIPLEN  ; XDIPLEN  >> =  2.653178511128E+01

@ FREQUENCY DEPENDENT SECOND ORDER PROPERTIES WITH FREQUENCY :

@    a.u.:  6.1383750D-02
@    cm-1:  1.3472176D+04
@    eV  :  1.6703368D+00
@  kJ/mol:  1.6116301D+02
@    nm  :  7.4227060D+02

@ -<< XDIPLEN  ; XDIPLEN  >> =  2.683403245080E+01

@ FREQUENCY DEPENDENT SECOND ORDER PROPERTIES WITH FREQUENCY :

@    a.u.:  7.3660500D-02
@    cm-1:  1.6166611D+04
@    eV  :  2.0044042D+00
@  kJ/mol:  1.9339561D+02
@    nm  :  6.1855883D+02

@ -<< XDIPLEN  ; XDIPLEN  >> =  2.722105540757E+01

@ FREQUENCY DEPENDENT SECOND ORDER PROPERTIES WITH FREQUENCY :

@    a.u.:  8.5937250D-02
@    cm-1:  1.8861046D+04
@    eV  :  2.3384715D+00
@  kJ/mol:  2.2562822D+02
@    nm  :  5.3019329D+02

@ -<< XDIPLEN  ; XDIPLEN  >> =  2.770626409451E+01

@ FREQUENCY DEPENDENT SECOND ORDER PROPERTIES WITH FREQUENCY :

@    a.u.:  9.8214000D-02
@    cm-1:  2.1555481D+04
@    eV  :  2.6725389D+00
@  kJ/mol:  2.5786082D+02
@    nm  :  4.6391913D+02

@ -<< XDIPLEN  ; XDIPLEN  >> =  2.830904140765E+01


 Time used in linear response calculation is     50.50 CPU seconds for symmetry 2
 ----------------------------------------------------------------
 ----- Linear response calculation
 ----- Symmetry of excitation/property operator(s)    3  ( B2 )
 ----------------------------------------------------------------

 Number of excitations of this symmetry            0
 Number of response properties of this symmetry    1
 Number of C6/C8 properties of this symmetry       0


 Perturbation symmetry.     KSYMOP:           3
 Perturbation spin symmetry.TRPLET:           F
 Orbital variables.         KZWOPT:        1058
 Configuration variables.   KZCONF:           0
 Total number of variables. KZVAR :        1058


 RSPLR -- linear response calculation for symmetry 3  ( B2 )
 RSPLR -- operator label : YDIPLEN 
 RSPLR -- operator spin  :   0
 RSPLR -- frequencies    :     0.000000  0.012277  0.024553  0.036830  0.049107
                               0.061384  0.073660  0.085937  0.098214



 ---  SOLVING SETS OF LINEAR EQUATIONS FOR LINEAR RESPONSE PROPERTIES ---

 Operator symmetry = 3  ( B2 ); triplet =   F


 ** RSPCTL MICROITERATION NUMBER    1

       No.  Residual tot.,    conf., and orb.    Bnorm      Frequency 
      ----------------------------------------------------------------
         1    1.81890D+00  0.00D+00  1.82D+00  5.14D+00    0.00000D+00
         2    1.81975D+00  0.00D+00  1.82D+00  5.16D+00    1.22767D-02
         3    1.82232D+00  0.00D+00  1.82D+00  5.20D+00    2.45535D-02
         4    1.82666D+00  0.00D+00  1.83D+00  5.26D+00    3.68302D-02
         5    1.83286D+00  0.00D+00  1.83D+00  5.36D+00    4.91070D-02
         6    1.84104D+00  0.00D+00  1.84D+00  5.49D+00    6.13838D-02
         7    1.85140D+00  0.00D+00  1.85D+00  5.65D+00    7.36605D-02
         8    1.86422D+00  0.00D+00  1.86D+00  5.86D+00    8.59372D-02
         9    1.87993D+00  0.00D+00  1.88D+00  6.12D+00    9.82140D-02

 ** RSPCTL MICROITERATION NUMBER    2

       No.  Residual tot.,    conf., and orb.    Bnorm      Frequency 
      ----------------------------------------------------------------
         1    4.60919D-01  0.00D+00  4.61D-01  5.40D+00    0.00000D+00
         2    4.61060D-01  0.00D+00  4.61D-01  5.41D+00    1.22767D-02
         3    4.61483D-01  0.00D+00  4.61D-01  5.46D+00    2.45535D-02
         4    4.62186D-01  0.00D+00  4.62D-01  5.53D+00    3.68302D-02
         5    4.63171D-01  0.00D+00  4.63D-01  5.64D+00    4.91070D-02
         6    4.64441D-01  0.00D+00  4.64D-01  5.79D+00    6.13838D-02
         7    4.66004D-01  0.00D+00  4.66D-01  5.99D+00    7.36605D-02
         8    4.67886D-01  0.00D+00  4.68D-01  6.24D+00    8.59372D-02
         9    4.70146D-01  0.00D+00  4.70D-01  6.56D+00    9.82140D-02

 ** RSPCTL MICROITERATION NUMBER    3

       No.  Residual tot.,    conf., and orb.    Bnorm      Frequency 
      ----------------------------------------------------------------
         1    4.46701D-02  0.00D+00  4.47D-02  5.40D+00    0.00000D+00
         2    4.46590D-02  0.00D+00  4.47D-02  5.42D+00    1.22767D-02
         3    4.46267D-02  0.00D+00  4.46D-02  5.46D+00    2.45535D-02
         4    4.45775D-02  0.00D+00  4.46D-02  5.54D+00    3.68302D-02
         5    4.45204D-02  0.00D+00  4.45D-02  5.65D+00    4.91070D-02
         6    4.44731D-02  0.00D+00  4.45D-02  5.80D+00    6.13838D-02
         7    4.44697D-02  0.00D+00  4.45D-02  6.00D+00    7.36605D-02
         8    4.45755D-02  0.00D+00  4.46D-02  6.25D+00    8.59372D-02
         9    4.49157D-02  0.00D+00  4.49D-02  6.57D+00    9.82140D-02

 ** RSPCTL MICROITERATION NUMBER    4

       No.  Residual tot.,    conf., and orb.    Bnorm      Frequency 
      ----------------------------------------------------------------
         1    5.39594D-03  0.00D+00  5.40D-03  5.40D+00    0.00000D+00
         2    5.41850D-03  0.00D+00  5.42D-03  5.42D+00    1.22767D-02
         3    5.48880D-03  0.00D+00  5.49D-03  5.46D+00    2.45535D-02
         4    5.61512D-03  0.00D+00  5.62D-03  5.54D+00    3.68302D-02
         5    5.81273D-03  0.00D+00  5.81D-03  5.65D+00    4.91070D-02
         6    6.10624D-03  0.00D+00  6.11D-03  5.80D+00    6.13838D-02
         7    6.53361D-03  0.00D+00  6.53D-03  6.00D+00    7.36605D-02
         8    7.15246D-03  0.00D+00  7.15D-03  6.25D+00    8.59372D-02
         9    8.05058D-03  0.00D+00  8.05D-03  6.57D+00    9.82140D-02

 ** RSPCTL MICROITERATION NUMBER    5

       No.  Residual tot.,    conf., and orb.    Bnorm      Frequency 
      ----------------------------------------------------------------
         1    8.05242D-04  0.00D+00  8.05D-04  5.40D+00    0.00000D+00
         2    8.10155D-04  0.00D+00  8.10D-04  5.42D+00    1.22767D-02
         3    8.25455D-04  0.00D+00  8.25D-04  5.46D+00    2.45535D-02
         4    8.52904D-04  0.00D+00  8.53D-04  5.54D+00    3.68302D-02
         5    8.95723D-04  0.00D+00  8.96D-04  5.65D+00    4.91070D-02
         6    9.59067D-04  0.00D+00  9.59D-04  5.80D+00    6.13838D-02
         7    1.05081D-03  0.00D+00  1.05D-03  6.00D+00    7.36605D-02
         8    1.18286D-03  0.00D+00  1.18D-03  6.25D+00    8.59372D-02
         9    1.37343D-03  0.00D+00  1.37D-03  6.57D+00    9.82140D-02

 *** THE REQUESTED    9 SOLUTION VECTORS CONVERGED

 Convergence of RSP solution vectors, threshold = 1.00D-03
 ---------------------------------------------------------------
 (dimension of paired reduced space:   88)
 RSP solution vector no.    1; norm of residual   1.49D-04
 RSP solution vector no.    2; norm of residual   1.50D-04
 RSP solution vector no.    3; norm of residual   1.51D-04
 RSP solution vector no.    4; norm of residual   1.54D-04
 RSP solution vector no.    5; norm of residual   1.58D-04
 RSP solution vector no.    6; norm of residual   1.65D-04
 RSP solution vector no.    7; norm of residual   1.75D-04
 RSP solution vector no.    8; norm of residual   1.89D-04
 RSP solution vector no.    9; norm of residual   2.09D-04

 *** RSPCTL MICROITERATIONS CONVERGED


           Final output of second order properties from linear response
           ------------------------------------------------------------


@ Spin symmetry of operators: singlet

 Note that minus the linear response function: - << A; B >>(omega) is printed.
 The results are of quadratic accuracy using Sellers formula.

@ FREQUENCY INDEPENDENT SECOND ORDER PROPERTIES

@ -<< YDIPLEN  ; YDIPLEN  >> =  2.602315017542E+01

@ FREQUENCY DEPENDENT SECOND ORDER PROPERTIES WITH FREQUENCY :

@    a.u.:  1.2276750D-02
@    cm-1:  2.6944352D+03
@    eV  :  3.3406736D-01
@  kJ/mol:  3.2232602D+01
@    nm  :  3.7113530D+03

@ -<< YDIPLEN  ; YDIPLEN  >> =  2.605393726778E+01

@ FREQUENCY DEPENDENT SECOND ORDER PROPERTIES WITH FREQUENCY :

@    a.u.:  2.4553500D-02
@    cm-1:  5.3888703D+03
@    eV  :  6.6813472D-01
@  kJ/mol:  6.4465204D+01
@    nm  :  1.8556765D+03

@ -<< YDIPLEN  ; YDIPLEN  >> =  2.614707330111E+01

@ FREQUENCY DEPENDENT SECOND ORDER PROPERTIES WITH FREQUENCY :

@    a.u.:  3.6830250D-02
@    cm-1:  8.0833055D+03
@    eV  :  1.0022021D+00
@  kJ/mol:  9.6697806D+01
@    nm  :  1.2371177D+03

@ -<< YDIPLEN  ; YDIPLEN  >> =  2.630494922437E+01

@ FREQUENCY DEPENDENT SECOND ORDER PROPERTIES WITH FREQUENCY :

@    a.u.:  4.9107000D-02
@    cm-1:  1.0777741D+04
@    eV  :  1.3362694D+00
@  kJ/mol:  1.2893041D+02
@    nm  :  9.2783825D+02

@ -<< YDIPLEN  ; YDIPLEN  >> =  2.653178510230E+01

@ FREQUENCY DEPENDENT SECOND ORDER PROPERTIES WITH FREQUENCY :

@    a.u.:  6.1383750D-02
@    cm-1:  1.3472176D+04
@    eV  :  1.6703368D+00
@  kJ/mol:  1.6116301D+02
@    nm  :  7.4227060D+02

@ -<< YDIPLEN  ; YDIPLEN  >> =  2.683403243786E+01

@ FREQUENCY DEPENDENT SECOND ORDER PROPERTIES WITH FREQUENCY :

@    a.u.:  7.3660500D-02
@    cm-1:  1.6166611D+04
@    eV  :  2.0044042D+00
@  kJ/mol:  1.9339561D+02
@    nm  :  6.1855883D+02

@ -<< YDIPLEN  ; YDIPLEN  >> =  2.722105538880E+01

@ FREQUENCY DEPENDENT SECOND ORDER PROPERTIES WITH FREQUENCY :

@    a.u.:  8.5937250D-02
@    cm-1:  1.8861046D+04
@    eV  :  2.3384715D+00
@  kJ/mol:  2.2562822D+02
@    nm  :  5.3019329D+02

@ -<< YDIPLEN  ; YDIPLEN  >> =  2.770626406705E+01

@ FREQUENCY DEPENDENT SECOND ORDER PROPERTIES WITH FREQUENCY :

@    a.u.:  9.8214000D-02
@    cm-1:  2.1555481D+04
@    eV  :  2.6725389D+00
@  kJ/mol:  2.5786082D+02
@    nm  :  4.6391913D+02

@ -<< YDIPLEN  ; YDIPLEN  >> =  2.830904136696E+01


 Time used in linear response calculation is     50.00 CPU seconds for symmetry 3

  Total CPU  time used in RESPONSE:  2 minutes 31 seconds
  Total wall time used in RESPONSE:  2 minutes 31 seconds


                   .-------------------------------------------.
                   | End of Dynamic Property Section (RESPONS) |
                   `-------------------------------------------'

  Total CPU  time used in DALTON:  3 minutes 35 seconds
  Total wall time used in DALTON:  3 minutes 35 seconds

 
     Date and time (Linux)  : Wed Jan 11 15:42:43 2023
     Host name              : cn020                                   
