

     ************************************************************************
     *************** Dalton - An Electronic Structure Program ***************
     ************************************************************************

    This is output from DALTON release Dalton2020.0 (2020)
         ( Web site: http://daltonprogram.org )

   ----------------------------------------------------------------------------

    NOTE:
     
    Dalton is an experimental code for the evaluation of molecular
    properties using (MC)SCF, DFT, CI, and CC wave functions.
    The authors accept no responsibility for the performance of
    the code or for the correctness of the results.
     
    The code (in whole or part) is provided under a licence and
    is not to be reproduced for further distribution without
    the written permission of the authors or their representatives.
     
    See the home page "http://daltonprogram.org" for further information.
     
    If results obtained with this code are published,
    the appropriate citations would be both of:
     
       K. Aidas, C. Angeli, K. L. Bak, V. Bakken, R. Bast,
       L. Boman, O. Christiansen, R. Cimiraglia, S. Coriani,
       P. Dahle, E. K. Dalskov, U. Ekstroem,
       T. Enevoldsen, J. J. Eriksen, P. Ettenhuber, B. Fernandez,
       L. Ferrighi, H. Fliegl, L. Frediani, K. Hald, A. Halkier,
       C. Haettig, H. Heiberg, T. Helgaker, A. C. Hennum,
       H. Hettema, E. Hjertenaes, S. Hoest, I.-M. Hoeyvik,
       M. F. Iozzi, B. Jansik, H. J. Aa. Jensen, D. Jonsson,
       P. Joergensen, J. Kauczor, S. Kirpekar,
       T. Kjaergaard, W. Klopper, S. Knecht, R. Kobayashi, H. Koch,
       J. Kongsted, A. Krapp, K. Kristensen, A. Ligabue,
       O. B. Lutnaes, J. I. Melo, K. V. Mikkelsen, R. H. Myhre,
       C. Neiss, C. B. Nielsen, P. Norman, J. Olsen,
       J. M. H. Olsen, A. Osted, M. J. Packer, F. Pawlowski,
       T. B. Pedersen, P. F. Provasi, S. Reine, Z. Rinkevicius,
       T. A. Ruden, K. Ruud, V. Rybkin, P. Salek, C. C. M. Samson,
       A. Sanchez de Meras, T. Saue, S. P. A. Sauer,
       B. Schimmelpfennig, K. Sneskov, A. H. Steindal,
       K. O. Sylvester-Hvid, P. R. Taylor, A. M. Teale,
       E. I. Tellgren, D. P. Tew, A. J. Thorvaldsen, L. Thoegersen,
       O. Vahtras, M. A. Watson, D. J. D. Wilson, M. Ziolkowski
       and H. Agren,
       "The Dalton quantum chemistry program system",
       WIREs Comput. Mol. Sci. 2014, 4:269–284 (doi: 10.1002/wcms.1172)
     
    and
     
       Dalton, a molecular electronic structure program,
       Release Dalton2020.0 (2020), see http://daltonprogram.org
   ----------------------------------------------------------------------------

    Authors in alphabetical order (Major contribution(s) in parenthesis):

  Kestutis Aidas,           Vilnius University,           Lithuania   (QM/MM)
  Celestino Angeli,         University of Ferrara,        Italy       (NEVPT2)
  Keld L. Bak,              UNI-C,                        Denmark     (AOSOPPA, non-adiabatic coupling, magnetic properties)
  Vebjoern Bakken,          University of Oslo,           Norway      (DALTON; geometry optimizer, symmetry detection)
  Radovan Bast,             UiT The Arctic U. of Norway,  Norway      (DALTON installation and execution frameworks)
  Pablo Baudin,             University of Valencia,       Spain       (Cholesky excitation energies)
  Linus Boman,              NTNU,                         Norway      (Cholesky decomposition and subsystems)
  Bruno N. Cabral Tenorio,  Technical Univ. of Denmark,   Denmark     (Lanczos-based CC methods)
  Ove Christiansen,         Aarhus University,            Denmark     (CC module)
  Renzo Cimiraglia,         University of Ferrara,        Italy       (NEVPT2)
  Sonia Coriani,            Technical Univ. of Denmark,   Denmark     (CC and RESPONS modules)
  Janusz Cukras,            University of Warsaw,         Poland      (MChD in RESPONS)
  Paal Dahle,               University of Oslo,           Norway      (Parallelization)
  Erik K. Dalskov,          UNI-C,                        Denmark     (SOPPA)
  Thomas Enevoldsen,        Univ. of Southern Denmark,    Denmark     (SOPPA)
  Janus J. Eriksen,         Aarhus University,            Denmark     (Polarizable embedding, TDA)
  Rasmus Faber,             Technical Univ. of Denmark,   Denmark     (Vib.avg. NMR w. SOPPA, parallel AO-SOPPA, CVS-CC and EOMCC)
  Tobias Fahleson,          KTH Stockholm,                Sweden      (Damped cubic response)
  Berta Fernandez,          U. of Santiago de Compostela, Spain       (Doublet spin, ESR in RESPONS)
  Lara Ferrighi,            Aarhus University,            Denmark     (PCM Cubic response)
  Heike Fliegl,             University of Oslo,           Norway      (CCSD(R12))
  Luca Frediani,            UiT The Arctic U. of Norway,  Norway      (PCM)
  Emmanuel Fromager,        Univ. Strasbourg,             France      (MC-srDFT)
  Bin Gao,                  UiT The Arctic U. of Norway,  Norway      (Gen1Int library)
  Andre S. P. Gomes,        CNRS/Universite de Lille,     France      (Frozen density embedding)
  Christof Haettig,         Ruhr-University Bochum,       Germany     (CC module)
  Kasper Hald,              Aarhus University,            Denmark     (CC module)
  Asger Halkier,            Aarhus University,            Denmark     (CC module)
  Frederik Beyer Hansen,    University of Copenhagen,     Denmark     (Parallel AO-SOPPA)
  Erik D. Hedegaard,        Univ. of Southern Denmark,    Denmark     (Polarizable embedding, QM/MM, and MC-srDFT)
  Hanne Heiberg,            University of Oslo,           Norway      (Geometry analysis, selected one-electron integrals)
  Trygve Helgaker,          University of Oslo,           Norway      (DALTON; ABACUS, ERI, DFT modules, London, and much more)
  Alf Christian Hennum,     University of Oslo,           Norway      (Parity violation)
  Hinne Hettema,            University of Auckland,       New Zealand (Quadratic response in RESPONS; SIRIUS supersymmetry)
  Eirik Hjertenaes,         NTNU,                         Norway      (Cholesky decomposition)
  Pi A. B. Haase,           University of Copenhagen,     Denmark     (Triplet AO-SOPPA)
  Maria Francesca Iozzi,    University of Oslo,           Norway      (RPA)
  Christoph Jacob           TU Braunschweig               Germany     (Frozen density embedding)
  Brano Jansik              Technical Univ. of Ostrava    Czech Rep.  (DFT cubic response)
  Hans Joergen Aa. Jensen,  Univ. of Southern Denmark,    Denmark     (DALTON; SIRIUS, RESPONS, ABACUS, MC-srDFT, and much more)
  Dan Jonsson,              UiT The Arctic U. of Norway,  Norway      (Cubic response in RESPONS module)
  Poul Joergensen,          Aarhus University,            Denmark     (RESPONS, ABACUS, and CC modules)
  Maciej Kaminski,          University of Warsaw,         Poland      (CPPh in RESPONS)
  Joanna Kauczor,           Linkoeping University,        Sweden      (Complex polarization propagator (CPP) module)
  Sheela Kirpekar,          Univ. of Southern Denmark,    Denmark     (Mass-velocity & Darwin integrals)
  Erik Kjellgren,           Univ. of Southern Denmark,    Denmark     (MC-srDFT)
  Wim Klopper,              KIT Karlsruhe,                Germany     (R12 code in CC, SIRIUS, and ABACUS modules)
  Stefan Knecht,            ETH Zurich,                   Switzerland (Parallel CI and MCSCF, MC-srDFT)
  Rika Kobayashi,           Australian National Univ.,    Australia   (DIIS in CC, London in MCSCF)
  Henrik Koch,              NTNU,                         Norway      (CC module, Cholesky decomposition)
  Jacob Kongsted,           Univ. of Southern Denmark,    Denmark     (Polarizable embedding, polarizable density embedding, QM/MM)
  Andrea Ligabue,           University of Modena,         Italy       (CTOCD, AOSOPPA)
  Nanna H. List             Univ. of Southern Denmark,    Denmark     (Polarizable embedding)
  Ola B. Lutnaes,           University of Oslo,           Norway      (DFT Hessian)
  Juan I. Melo,             University of Buenos Aires,   Argentina   (LRESC, Relativistic Effects on NMR Shieldings)
  Kurt V. Mikkelsen,        University of Copenhagen,     Denmark     (MC-SCRF and QM/MM)
  Rolf H. Myhre,            NTNU,                         Norway      (Subsystems and CC3)
  Christian Neiss,          Univ. Erlangen-Nuernberg,     Germany     (CCSD(R12))
  Christian B. Nielsen,     University of Copenhagen,     Denmark     (QM/MM)
  Patrick Norman,           KTH Stockholm,                Sweden      (Cubic response and complex frequency response in RESPONS)
  Jeppe Olsen,              Aarhus University,            Denmark     (SIRIUS CI/density modules)
  Jogvan Magnus H. Olsen,   Aarhus University,            Denmark     (Polarizable embedding and polarizable density embedding)
  Anders Osted,             Copenhagen University,        Denmark     (QM/MM)
  Martin J. Packer,         University of Sheffield,      UK          (SOPPA)
  Filip Pawlowski,          Kazimierz Wielki University,  Poland      (CC3)
  Morten N. Pedersen,       Univ. of Southern Denmark,    Denmark     (Polarizable embedding)
  Thomas B. Pedersen,       University of Oslo,           Norway      (Cholesky decomposition)
  Patricio F. Provasi,      University of Northeastern,   Argentina   (Analysis of coupling constants in localized orbitals)
  Peter Reinholdt,          Univ. of Southern Denmark,    Denmark     (Polarizable embedding and polarizable density embedding)
  Zilvinas Rinkevicius,     KTH Stockholm,                Sweden      (open-shell DFT, ESR)
  Elias Rudberg,            KTH Stockholm,                Sweden      (DFT grid and basis info)
  Torgeir A. Ruden,         University of Oslo,           Norway      (Numerical derivatives in ABACUS)
  Kenneth Ruud,             UiT The Arctic U. of Norway,  Norway      (DALTON; ABACUS magnetic properties and much more)
  Pawel Salek,              KTH Stockholm,                Sweden      (DALTON; DFT code)
  Claire C. M. Samson       University of Karlsruhe       Germany     (Boys localization, r12 integrals in ERI)
  Alfredo Sanchez de Meras, University of Valencia,       Spain       (CC module, Cholesky decomposition)
  Trond Saue,               Paul Sabatier University,     France      (direct Fock matrix construction)
  Stephan P. A. Sauer,      University of Copenhagen,     Denmark     (SOPPA(CCSD), SOPPA prop., AOSOPPA, vibrational g-factors)
  Bernd Schimmelpfennig,    Forschungszentrum Karlsruhe,  Germany     (AMFI module)
  Anna K. Schnack-Petersen, University of Copenhagen,     Denmark     (RPA(D) and HRPA(D) properties in AOSOPPA)
  Kristian Sneskov,         Aarhus University,            Denmark     (Polarizable embedding, QM/MM)
  Arnfinn H. Steindal,      UiT The Arctic U. of Norway,  Norway      (parallel QM/MM, polarizable embedding)
  Casper Steinmann,         Aalborg University,           Denmark     (QFIT, polarizable embedding)
  K. O. Sylvester-Hvid,     University of Copenhagen,     Denmark     (MC-SCRF)
  Peter R. Taylor,          VLSCI/Univ. of Melbourne,     Australia   (Symmetry handling ABACUS, integral transformation)
  Andrew M. Teale,          University of Nottingham,     England     (DFT-AC, DFT-D)
  David P. Tew,             University of Bristol,        England     (CCSD(R12))
  Julien Toulouse,          Sorbonne Univ.,               France      (MC-srDFT)
  Olav Vahtras,             KTH Stockholm,                Sweden      (Triplet response, spin-orbit, ESR, TDDFT, open-shell DFT)
  Lucas Visscher,           Vrije Universiteit Amsterdam, Netherlands (Frozen density embedding)
  David J. Wilson,          La Trobe University,          Australia   (DFT Hessian and DFT magnetizabilities)
  Hans Agren,               KTH Stockholm,                Sweden      (SIRIUS module, RESPONS, MC-SCRF solvation)
 --------------------------------------------------------------------------------

     Date and time (Linux)  : Wed Jan 11 14:14:51 2023
     Host name              : cn040                                   

 * Work memory size             :    64000000 =  488.28 megabytes.

 * Directories for basis set searches:
   1) /gpfs/projects/rjh/adrian/fd_compare/dalton/hf/F2/dipole
   2) /gpfs/projects/rjh/adrian/dalton/build/basis


Compilation information
-----------------------

 Who compiled             | ahurtado
 Host                     | sn-mem
 System                   | Linux-3.10.0-1160.24.1.el7.x86_64
 CMake generator          | Unix Makefiles
 Processor                | x86_64
 64-bit integers          | OFF
 MPI                      | ON
 Fortran compiler         | /gpfs/software/intel/oneAPI/2021_4/mpi/2021.4.0/bi
                          | n/mpif90
 Fortran compiler version | GNU Fortran (GCC) 11.2.0
 C compiler               | /gpfs/software/intel/oneAPI/2021_4/mpi/2021.4.0/bi
                          | n/mpicc
 C compiler version       | gcc (GCC) 11.2.0
 C++ compiler             | /gpfs/software/intel/oneAPI/2021_4/mpi/2021.4.0/bi
                          | n/mpicxx
 C++ compiler version     | unknown
 BLAS                     | /gpfs/software/intel/oneAPI/2021_4/mkl/2021.4.0/li
                          | b/intel64/libmkl_gf_lp64.so;/gpfs/software/intel/o
                          | neAPI/2021_4/mkl/2021.4.0/lib/intel64/libmkl_seque
                          | ntial.so;/gpfs/software/intel/oneAPI/2021_4/mkl/20
                          | 21.4.0/lib/intel64/libmkl_core.so;/usr/lib64/libpt
                          | hread.so;/usr/lib64/libm.so
 LAPACK                   | /gpfs/software/intel/oneAPI/2021_4/mkl/2021.4.0/li
                          | b/intel64/libmkl_lapack95_lp64.a;/gpfs/software/in
                          | tel/oneAPI/2021_4/mkl/2021.4.0/lib/intel64/libmkl_
                          | gf_lp64.so
 Static linking           | OFF
 Last Git revision        | 66052b3af5ea7225e31178bf9a8b031913c72190
 Git branch               | (HEAD detached at Dalton2020.0)
 Configuration time       | 2023-01-11 13:33:37.731835

 * MPI parallel run using 20 processes.


   Content of the .dal input file
 ----------------------------------

**DALTON INPUT
.RUN RESPONSE
.DIRECT
**WAVE FUNCTIONS
.HF
**RESPONSE
*LINEAR
.DIPLEN
.FREQUENCIES
9
0.0 0.0110174375 0.022034875 0.0330523125 0.04406975 0.055087187499999996 0.066104625 0.077122062499
**END OF DALTON INPUT


   Content of the .mol file
 ----------------------------

BASIS
aug-cc-pV5Z
blah
blah
Atomtype=1 Atomic
Charge=9 Atoms=2
F_a 0.000000000000 0.000000000000 0.000000000000
F_b 0.000000000000 0.000000000000 2.668160000000


       *******************************************************************
       *********** Output from DALTON general input processing ***********
       *******************************************************************

 --------------------------------------------------------------------------------
   Overall default print level:    0
   Print level for DALTON.STAT:    1

    Parallel calculation using MPI
    AO-direct calculation (in sections where implemented)
    HERMIT 1- and 2-electron integral sections will be executed
    "Old" integral transformation used (limited to max 255 basis functions)
    Wave function sections will be executed (SIRIUS module)
    Dynamic molecular response properties section will be executed (RESPONSE module)
 --------------------------------------------------------------------------------


   ****************************************************************************
   *************** Output of molecule and basis set information ***************
   ****************************************************************************


    The two title cards from your ".mol" input:
    ------------------------------------------------------------------------
 1: blah                                                                    
 2: blah                                                                    
    ------------------------------------------------------------------------

  Atomic type no.    1
  --------------------
  Nuclear charge:   9.00000
  Number of symmetry independent centers:    2
  Number of basis sets to read;    2
  Basis set file used for this atomic type with Z =   9 :
     "/gpfs/projects/rjh/adrian/dalton/build/basis/aug-cc-pV5Z"


                      SYMADD: Requested addition of symmetry
                      --------------------------------------

 Symmetry test threshold:  5.00E-06

@   The molecule is centered at center of mass and rotated
@   so principal axes of inertia are along coordinate axes.

 Symmetry class found: D(oo,h)        

 Symmetry Independent Centres             
 ----------------------------
F_b    9 :      0.00000000     0.00000000     1.33408000  Isotope  1

 The following symmetry elements were found:   X  Y  Z  


                         SYMGRP: Point group information
                         -------------------------------

@    Full point group is: D(oo,h)        
@    Represented as:      D2h

@  * The irrep name for each symmetry:    1: Ag     2: B3u    3: B2u    4: B1g    5: B1u    6: B2g    7: B3g    8: Au 


   * The point group was generated by:

      Reflection in the yz-plane
      Reflection in the xz-plane
      Reflection in the xy-plane

   * Group multiplication table

        |  E   C2z  C2y  C2x   i   Oxy  Oxz  Oyz
   -----+----------------------------------------
     E  |  E   C2z  C2y  C2x   i   Oxy  Oxz  Oyz
    C2z | C2z   E   C2x  C2y  Oxy   i   Oyz  Oxz
    C2y | C2y  C2x   E   C2z  Oxz  Oyz   i   Oxy
    C2x | C2x  C2y  C2z   E   Oyz  Oxz  Oxy   i 
     i  |  i   Oxy  Oxz  Oyz   E   C2z  C2y  C2x
    Oxy | Oxy   i   Oyz  Oxz  C2z   E   C2x  C2y
    Oxz | Oxz  Oyz   i   Oxy  C2y  C2x   E   C2z
    Oyz | Oyz  Oxz  Oxy   i   C2x  C2y  C2z   E 

   * Character table

        |  E   C2z  C2y  C2x   i   Oxy  Oxz  Oyz
   -----+----------------------------------------
    Ag  |   1    1    1    1    1    1    1    1
    B3u |   1   -1   -1    1   -1    1    1   -1
    B2u |   1   -1    1   -1   -1    1   -1    1
    B1g |   1    1   -1   -1    1    1   -1   -1
    B1u |   1    1   -1   -1   -1   -1    1    1
    B2g |   1   -1    1   -1    1   -1    1   -1
    B3g |   1   -1   -1    1    1   -1   -1    1
    Au  |   1    1    1    1   -1   -1   -1   -1

   * Direct product table

        | Ag   B3u  B2u  B1g  B1u  B2g  B3g  Au 
   -----+----------------------------------------
    Ag  | Ag   B3u  B2u  B1g  B1u  B2g  B3g  Au 
    B3u | B3u  Ag   B1g  B2u  B2g  B1u  Au   B3g
    B2u | B2u  B1g  Ag   B3u  B3g  Au   B1u  B2g
    B1g | B1g  B2u  B3u  Ag   Au   B3g  B2g  B1u
    B1u | B1u  B2g  B3g  Au   Ag   B3u  B2u  B1g
    B2g | B2g  B1u  Au   B3g  B3u  Ag   B1g  B2u
    B3g | B3g  Au   B1u  B2g  B2u  B1g  Ag   B3u
    Au  | Au   B3g  B2g  B1u  B1g  B2u  B3u  Ag 


                                 Isotopic Masses
                                 ---------------

                           F_b _1     18.998403
                           F_b _2     18.998403

                       Total mass:    37.996806 amu
                       Natural abundance: 100.000 %

 Center-of-mass coordinates (a.u.):    0.000000    0.000000    0.000000
 Center-of-mass coordinates (Angs):    0.000000    0.000000    0.000000


  Atoms and basis sets
  --------------------

  Number of atom types :    1
  Total number of atoms:    2

  Basis set used is "aug-cc-pV5Z" from the basis set library.

  label    atoms   charge   prim   cont     basis
  ----------------------------------------------------------------------
  F_          2    9.0000   144   127      [15s9p5d4f3g2h|7s6p5d4f3g2h]                       
  ----------------------------------------------------------------------
  total:      2   18.0000   288   254
  ----------------------------------------------------------------------
  Spherical harmonic basis used.

  Threshold for neglecting AO integrals:  1.00D-12


  Cartesian Coordinates (a.u.)
  ----------------------------

  Total number of coordinates:    6
  F_b / 1 :     1  x   0.0000000000    2  y   0.0000000000    3  z   1.3340800000
  F_b / 2 :     4  x   0.0000000000    5  y   0.0000000000    6  z  -1.3340800000


  Symmetry Coordinates
  --------------------

  Number of coordinates in each symmetry:     1    1    1    0    1    1    1    0

  Symmetry  Ag  ( 1)

    1   F_b   z    [  3  -    6 ]/2

  Symmetry  B3u ( 2)

    2   F_b   x    [  1  +    4 ]/2

  Symmetry  B2u ( 3)

    3   F_b   y    [  2  +    5 ]/2

  Symmetry  B1u ( 5)

    4   F_b   z    [  3  +    6 ]/2

  Symmetry  B2g ( 6)

    5   F_b   x    [  1  -    4 ]/2

  Symmetry  B3g ( 7)

    6   F_b   y    [  2  -    5 ]/2


   Interatomic separations (in Angstrom):
   --------------------------------------

            F_b _1      F_b _2
            ------      ------
 F_b _1:    0.000000
 F_b _2:    1.411929    0.000000


  Max    interatomic separation is    1.4119 Angstrom (    2.6682 Bohr)
  between atoms    2 and    1, "F_b _2" and "F_b _1".

  Min YX interatomic separation is    1.4119 Angstrom (    2.6682 Bohr)


  Bond distances (Angstrom):
  --------------------------

                  atom 1     atom 2       distance
                  ------     ------       --------
  bond distance:  F_b _2     F_b _1       1.411929




 Principal moments of inertia (u*A**2) and principal axes
 --------------------------------------------------------

   IA       0.000000          0.000000    0.000000    1.000000
   IB      18.937084          0.000000    1.000000    0.000000
   IC      18.937084          1.000000    0.000000    0.000000


 Rotational constants
 --------------------

@    The molecule is linear.

               B =        26687.27 MHz     (    0.890191 cm-1)


@  Nuclear repulsion energy :   30.357999520269 Hartree


  Symmetry Orbitals
  -----------------

  Number of orbitals in each symmetry:          46   31   31   19   46   31   31   19


  Symmetry  Ag ( 1)

    1     F_b      1s         1 +    2
    2     F_b      1s         3 +    4
    3     F_b      1s         5 +    6
    4     F_b      1s         7 +    8
    5     F_b      1s         9 +   10
    6     F_b      1s        11 +   12
    7     F_b      1s        13 +   14
    8     F_b      2pz       19 -   20
    9     F_b      2pz       25 -   26
   10     F_b      2pz       31 -   32
   11     F_b      2pz       37 -   38
   12     F_b      2pz       43 -   44
   13     F_b      2pz       49 -   50
   14     F_b      3d0       55 +   56
   15     F_b      3d2+      59 +   60
   16     F_b      3d0       65 +   66
   17     F_b      3d2+      69 +   70
   18     F_b      3d0       75 +   76
   19     F_b      3d2+      79 +   80
   20     F_b      3d0       85 +   86
   21     F_b      3d2+      89 +   90
   22     F_b      3d0       95 +   96
   23     F_b      3d2+      99 +  100
   24     F_b      4f0      107 -  108
   25     F_b      4f2+     111 -  112
   26     F_b      4f0      121 -  122
   27     F_b      4f2+     125 -  126
   28     F_b      4f0      135 -  136
   29     F_b      4f2+     139 -  140
   30     F_b      4f0      149 -  150
   31     F_b      4f2+     153 -  154
   32     F_b      5g0      165 +  166
   33     F_b      5g2+     169 +  170
   34     F_b      5g4+     173 +  174
   35     F_b      5g0      183 +  184
   36     F_b      5g2+     187 +  188
   37     F_b      5g4+     191 +  192
   38     F_b      5g0      201 +  202
   39     F_b      5g2+     205 +  206
   40     F_b      5g4+     209 +  210
   41     F_b      6h0      221 -  222
   42     F_b      6h2+     225 -  226
   43     F_b      6h4+     229 -  230
   44     F_b      6h0      243 -  244
   45     F_b      6h2+     247 -  248
   46     F_b      6h4+     251 -  252


  Symmetry  B3u( 2)

   47     F_b      2px       15 +   16
   48     F_b      2px       21 +   22
   49     F_b      2px       27 +   28
   50     F_b      2px       33 +   34
   51     F_b      2px       39 +   40
   52     F_b      2px       45 +   46
   53     F_b      3d1+      57 -   58
   54     F_b      3d1+      67 -   68
   55     F_b      3d1+      77 -   78
   56     F_b      3d1+      87 -   88
   57     F_b      3d1+      97 -   98
   58     F_b      4f1+     109 +  110
   59     F_b      4f3+     113 +  114
   60     F_b      4f1+     123 +  124
   61     F_b      4f3+     127 +  128
   62     F_b      4f1+     137 +  138
   63     F_b      4f3+     141 +  142
   64     F_b      4f1+     151 +  152
   65     F_b      4f3+     155 +  156
   66     F_b      5g1+     167 -  168
   67     F_b      5g3+     171 -  172
   68     F_b      5g1+     185 -  186
   69     F_b      5g3+     189 -  190
   70     F_b      5g1+     203 -  204
   71     F_b      5g3+     207 -  208
   72     F_b      6h1+     223 +  224
   73     F_b      6h3+     227 +  228
   74     F_b      6h5+     231 +  232
   75     F_b      6h1+     245 +  246
   76     F_b      6h3+     249 +  250
   77     F_b      6h5+     253 +  254


  Symmetry  B2u( 3)

   78     F_b      2py       17 +   18
   79     F_b      2py       23 +   24
   80     F_b      2py       29 +   30
   81     F_b      2py       35 +   36
   82     F_b      2py       41 +   42
   83     F_b      2py       47 +   48
   84     F_b      3d1-      53 -   54
   85     F_b      3d1-      63 -   64
   86     F_b      3d1-      73 -   74
   87     F_b      3d1-      83 -   84
   88     F_b      3d1-      93 -   94
   89     F_b      4f3-     101 +  102
   90     F_b      4f1-     105 +  106
   91     F_b      4f3-     115 +  116
   92     F_b      4f1-     119 +  120
   93     F_b      4f3-     129 +  130
   94     F_b      4f1-     133 +  134
   95     F_b      4f3-     143 +  144
   96     F_b      4f1-     147 +  148
   97     F_b      5g3-     159 -  160
   98     F_b      5g1-     163 -  164
   99     F_b      5g3-     177 -  178
  100     F_b      5g1-     181 -  182
  101     F_b      5g3-     195 -  196
  102     F_b      5g1-     199 -  200
  103     F_b      6h5-     211 +  212
  104     F_b      6h3-     215 +  216
  105     F_b      6h1-     219 +  220
  106     F_b      6h5-     233 +  234
  107     F_b      6h3-     237 +  238
  108     F_b      6h1-     241 +  242


  Symmetry  B1g( 4)

  109     F_b      3d2-      51 +   52
  110     F_b      3d2-      61 +   62
  111     F_b      3d2-      71 +   72
  112     F_b      3d2-      81 +   82
  113     F_b      3d2-      91 +   92
  114     F_b      4f2-     103 -  104
  115     F_b      4f2-     117 -  118
  116     F_b      4f2-     131 -  132
  117     F_b      4f2-     145 -  146
  118     F_b      5g4-     157 +  158
  119     F_b      5g2-     161 +  162
  120     F_b      5g4-     175 +  176
  121     F_b      5g2-     179 +  180
  122     F_b      5g4-     193 +  194
  123     F_b      5g2-     197 +  198
  124     F_b      6h4-     213 -  214
  125     F_b      6h2-     217 -  218
  126     F_b      6h4-     235 -  236
  127     F_b      6h2-     239 -  240


  Symmetry  B1u( 5)

  128     F_b      1s         1 -    2
  129     F_b      1s         3 -    4
  130     F_b      1s         5 -    6
  131     F_b      1s         7 -    8
  132     F_b      1s         9 -   10
  133     F_b      1s        11 -   12
  134     F_b      1s        13 -   14
  135     F_b      2pz       19 +   20
  136     F_b      2pz       25 +   26
  137     F_b      2pz       31 +   32
  138     F_b      2pz       37 +   38
  139     F_b      2pz       43 +   44
  140     F_b      2pz       49 +   50
  141     F_b      3d0       55 -   56
  142     F_b      3d2+      59 -   60
  143     F_b      3d0       65 -   66
  144     F_b      3d2+      69 -   70
  145     F_b      3d0       75 -   76
  146     F_b      3d2+      79 -   80
  147     F_b      3d0       85 -   86
  148     F_b      3d2+      89 -   90
  149     F_b      3d0       95 -   96
  150     F_b      3d2+      99 -  100
  151     F_b      4f0      107 +  108
  152     F_b      4f2+     111 +  112
  153     F_b      4f0      121 +  122
  154     F_b      4f2+     125 +  126
  155     F_b      4f0      135 +  136
  156     F_b      4f2+     139 +  140
  157     F_b      4f0      149 +  150
  158     F_b      4f2+     153 +  154
  159     F_b      5g0      165 -  166
  160     F_b      5g2+     169 -  170
  161     F_b      5g4+     173 -  174
  162     F_b      5g0      183 -  184
  163     F_b      5g2+     187 -  188
  164     F_b      5g4+     191 -  192
  165     F_b      5g0      201 -  202
  166     F_b      5g2+     205 -  206
  167     F_b      5g4+     209 -  210
  168     F_b      6h0      221 +  222
  169     F_b      6h2+     225 +  226
  170     F_b      6h4+     229 +  230
  171     F_b      6h0      243 +  244
  172     F_b      6h2+     247 +  248
  173     F_b      6h4+     251 +  252


  Symmetry  B2g( 6)

  174     F_b      2px       15 -   16
  175     F_b      2px       21 -   22
  176     F_b      2px       27 -   28
  177     F_b      2px       33 -   34
  178     F_b      2px       39 -   40
  179     F_b      2px       45 -   46
  180     F_b      3d1+      57 +   58
  181     F_b      3d1+      67 +   68
  182     F_b      3d1+      77 +   78
  183     F_b      3d1+      87 +   88
  184     F_b      3d1+      97 +   98
  185     F_b      4f1+     109 -  110
  186     F_b      4f3+     113 -  114
  187     F_b      4f1+     123 -  124
  188     F_b      4f3+     127 -  128
  189     F_b      4f1+     137 -  138
  190     F_b      4f3+     141 -  142
  191     F_b      4f1+     151 -  152
  192     F_b      4f3+     155 -  156
  193     F_b      5g1+     167 +  168
  194     F_b      5g3+     171 +  172
  195     F_b      5g1+     185 +  186
  196     F_b      5g3+     189 +  190
  197     F_b      5g1+     203 +  204
  198     F_b      5g3+     207 +  208
  199     F_b      6h1+     223 -  224
  200     F_b      6h3+     227 -  228
  201     F_b      6h5+     231 -  232
  202     F_b      6h1+     245 -  246
  203     F_b      6h3+     249 -  250
  204     F_b      6h5+     253 -  254


  Symmetry  B3g( 7)

  205     F_b      2py       17 -   18
  206     F_b      2py       23 -   24
  207     F_b      2py       29 -   30
  208     F_b      2py       35 -   36
  209     F_b      2py       41 -   42
  210     F_b      2py       47 -   48
  211     F_b      3d1-      53 +   54
  212     F_b      3d1-      63 +   64
  213     F_b      3d1-      73 +   74
  214     F_b      3d1-      83 +   84
  215     F_b      3d1-      93 +   94
  216     F_b      4f3-     101 -  102
  217     F_b      4f1-     105 -  106
  218     F_b      4f3-     115 -  116
  219     F_b      4f1-     119 -  120
  220     F_b      4f3-     129 -  130
  221     F_b      4f1-     133 -  134
  222     F_b      4f3-     143 -  144
  223     F_b      4f1-     147 -  148
  224     F_b      5g3-     159 +  160
  225     F_b      5g1-     163 +  164
  226     F_b      5g3-     177 +  178
  227     F_b      5g1-     181 +  182
  228     F_b      5g3-     195 +  196
  229     F_b      5g1-     199 +  200
  230     F_b      6h5-     211 -  212
  231     F_b      6h3-     215 -  216
  232     F_b      6h1-     219 -  220
  233     F_b      6h5-     233 -  234
  234     F_b      6h3-     237 -  238
  235     F_b      6h1-     241 -  242


  Symmetry  Au ( 8)

  236     F_b      3d2-      51 -   52
  237     F_b      3d2-      61 -   62
  238     F_b      3d2-      71 -   72
  239     F_b      3d2-      81 -   82
  240     F_b      3d2-      91 -   92
  241     F_b      4f2-     103 +  104
  242     F_b      4f2-     117 +  118
  243     F_b      4f2-     131 +  132
  244     F_b      4f2-     145 +  146
  245     F_b      5g4-     157 -  158
  246     F_b      5g2-     161 -  162
  247     F_b      5g4-     175 -  176
  248     F_b      5g2-     179 -  180
  249     F_b      5g4-     193 -  194
  250     F_b      5g2-     197 -  198
  251     F_b      6h4-     213 +  214
  252     F_b      6h2-     217 +  218
  253     F_b      6h4-     235 +  236
  254     F_b      6h2-     239 +  240

  Symmetries of electric field:  B3u(2)  B2u(3)  B1u(5)

  Symmetries of magnetic field:  B3g(7)  B2g(6)  B1g(4)


                     .---------------------------------------.
                     | Starting in Integral Section (HERMIT) |
                     `---------------------------------------'



 ***************************************************************************************
 ****************** Output from **INTEGRALS input processing (HERMIT) ******************
 ***************************************************************************************


 - Using defaults, no **INTEGRALS input found

 Default print level:        1

 Calculation of one-electron Hamiltonian integrals.

 Center of mass  (bohr):      0.000000000000      0.000000000000      0.000000000000
 Operator center (bohr):      0.000000000000      0.000000000000      0.000000000000
 Gauge origin    (bohr):      0.000000000000      0.000000000000      0.000000000000
 Dipole origin   (bohr):      0.000000000000      0.000000000000      0.000000000000


     ************************************************************************
     ************************** Output from HERINT **************************
     ************************************************************************



                      Nuclear contribution to dipole moments
                      --------------------------------------

                    All dipole components are zero by symmetry


  Time used in GABGEN     is       0.52 seconds
  Total CPU  time used in HERMIT:   0.69 seconds
  Total wall time used in HERMIT:   0.69 seconds


                        .----------------------------------.
                        | End of Integral Section (HERMIT) |
                        `----------------------------------'



                   .--------------------------------------------.
                   | Starting in Wave Function Section (SIRIUS) |
                   `--------------------------------------------'


 *** Output from Huckel module :

     Using EWMO model:          F
     Using EHT  model:          T
     Number of Huckel orbitals each symmetry:    3    1    1    0    3    1    1    0

 Huckel EHT eigenvalues for symmetry :  1
          -26.385657      -1.787625      -0.792360

 Huckel EHT eigenvalues for symmetry :  2
           -0.800215

 Huckel EHT eigenvalues for symmetry :  3
           -0.800215

 Huckel EHT eigenvalues for symmetry :  5
          -26.385463      -1.454670      -0.564625

 Huckel EHT eigenvalues for symmetry :  6
           -0.659785

 Huckel EHT eigenvalues for symmetry :  7
           -0.659785

 **********************************************************************
 *SIRIUS* a direct, restricted step, second order MCSCF program       *
 **********************************************************************

 
     Date and time (Linux)  : Wed Jan 11 14:14:52 2023
     Host name              : cn040                                   

 Title lines from ".mol" input file:
     blah                                                                    
     blah                                                                    

 Print level on unit LUPRI =   2 is   0
 Print level on unit LUW4  =   2 is   5

@    Restricted, closed shell Hartree-Fock calculation.

@    Time-dependent Hartree-Fock calculation (random phase approximation).
 Fock matrices are calculated directly and in parallel without use of integrals on disk.

 Initial molecular orbitals are obtained according to
 ".MOSTART EHT   " input option

     Wave function specification
     ============================
@    Wave function type        --- HF ---
@    Number of closed shell electrons          18
@    Number of electrons in active shells       0
@    Total charge of the molecule               0

@    Spin multiplicity and 2 M_S                1         0
@    Total number of symmetries                 8 (point group: D2h)
@    Reference state symmetry                   1 (irrep name : Ag )

     Orbital specifications
     ======================
@    Abelian symmetry species          All |    1    2    3    4    5    6    7    8
@                                          |  Ag   B3u  B2u  B1g  B1u  B2g  B3g  Au 
                                       --- |  ---  ---  ---  ---  ---  ---  ---  ---
@    Total number of orbitals          254 |   46   31   31   19   46   31   31   19
@    Number of basis functions         254 |   46   31   31   19   46   31   31   19

      ** Automatic occupation of RHF orbitals **

      -- Initial occupation of symmetries is determined from extended Huckel guess.           
      -- Initial occupation of symmetries is :
@    Occupied SCF orbitals               9 |    3    1    1    0    2    1    1    0

     Maximum number of Fock   iterations      0
     Maximum number of DIIS   iterations     60
     Maximum number of QC-SCF iterations     60
     Threshold for SCF convergence     1.00D-05


 ***********************************************
 ***** DIIS acceleration of SCF iterations *****
 ***********************************************

 C1-DIIS algorithm; max error vectors =    8

 Automatic occupation of symmetries with  18 electrons.

 Iter     Total energy    Error norm  Delta(E)    SCF occupation
 -----------------------------------------------------------------------------
   1  Screening settings (-IFTHRS, JTDIIS, DIFDEN, times)   -7    1    T  3.44D+00  3.44D+00
@  1  -198.652254672       2.06D+00  -1.99D+02     3   1   1   0   2   1   1   0
      Virial theorem: -V/T =      2.001688
@    MULPOP   F_b _1 -0.00; F_b _2 -0.00; 
   1  Level shift: doubly occupied orbital energies shifted by -2.00D-01
 -----------------------------------------------------------------------------
   2  Screening settings (-IFTHRS, JTDIIS, DIFDEN, times)   -7    2    T  3.44D+00  3.44D+00
@  2  -198.765755327       4.51D-01  -1.14D-01     3   1   1   0   2   1   1   0
      Virial theorem: -V/T =      1.999665
@    MULPOP   F_b _1  0.00; F_b _2  0.00; 
   2  Level shift: doubly occupied orbital energies shifted by -5.00D-02
 -----------------------------------------------------------------------------
   3  Screening settings (-IFTHRS, JTDIIS, DIFDEN, times)  -11    3    F  3.52D+00  3.52D+00
@  3  -198.772243360       9.26D-02  -6.49D-03     3   1   1   0   2   1   1   0
      Virial theorem: -V/T =      2.001520
@    MULPOP   F_b _1  0.00; F_b _2  0.00; 
   3  Level shift: doubly occupied orbital energies shifted by -1.25D-02
 -----------------------------------------------------------------------------
   4  Screening settings (-IFTHRS, JTDIIS, DIFDEN, times)  -11    4    T  3.46D+00  3.46D+00
@  4  -198.772937327       3.31D-02  -6.94D-04     3   1   1   0   2   1   1   0
      Virial theorem: -V/T =      2.000755
@    MULPOP   F_b _1 -0.00; F_b _2 -0.00; 
 -----------------------------------------------------------------------------
   5  Screening settings (-IFTHRS, JTDIIS, DIFDEN, times)  -11    5    T  3.43D+00  3.43D+00
@  5  -198.772994635       6.89D-03  -5.73D-05     3   1   1   0   2   1   1   0
      Virial theorem: -V/T =      2.001025
@    MULPOP   F_b _1  0.00; F_b _2  0.00; 
 -----------------------------------------------------------------------------
   6  Screening settings (-IFTHRS, JTDIIS, DIFDEN, times)  -11    6    T  3.42D+00  3.42D+00
@  6  -198.772997173       7.60D-04  -2.54D-06     3   1   1   0   2   1   1   0
      Virial theorem: -V/T =      2.000973
@    MULPOP   F_b _1 -0.00; F_b _2 -0.00; 
 -----------------------------------------------------------------------------
   7  Screening settings (-IFTHRS, JTDIIS, DIFDEN, times)  -11    7    T  3.46D+00  3.46D+00
@  7  -198.772997216       7.84D-05  -4.39D-08     3   1   1   0   2   1   1   0
      Virial theorem: -V/T =      2.000976
@    MULPOP   F_b _1 -0.00; F_b _2 -0.00; 
 -----------------------------------------------------------------------------
   8  Screening settings (-IFTHRS, JTDIIS, DIFDEN, times)  -11    8    T  3.42D+00  3.42D+00
@  8  -198.772997217       8.32D-06  -4.57D-10     3   1   1   0   2   1   1   0

@ *** DIIS converged in   8 iterations !
@     Converged SCF energy, gradient:   -198.772997216917    8.32D-06
    - total time used in SIRFCK :              0.00 seconds


 *** SCF orbital energy analysis ***

 Only the 20 lowest virtual orbital energies printed in each symmetry.

 Number of electrons :   18
 Orbital occupations :    3    1    1    0    2    1    1    0

 Sym       Hartree-Fock orbital energies

1 Ag    -26.42807823    -1.76466180    -0.75185931     0.12814986     0.19066076
          0.48013322     0.57301070     0.70598955     1.00393131     1.36947197
          1.59069259     1.63474996     1.83592172     2.44096720     3.19421957
          3.45458319     3.59012913     3.85963795     3.96817800     4.12912230
          4.19048114     4.93709411     7.62852519

2 B3u    -0.81144800     0.12903695     0.57420642     0.62622092     1.25076446
          1.48949633     1.78555877     1.97179488     3.17818339     3.54569423
          3.79152371     3.93424824     4.97657074     6.05025750     7.52661075
          7.91331181     8.17377760     8.94850155     9.30559383     9.79945057
         10.56432559

3 B2u    -0.81144800     0.12903695     0.57420642     0.62622092     1.25076446
          1.48949633     1.78555877     1.97179488     3.17818339     3.54569423
          3.79152371     3.93424824     4.97657074     6.05025750     7.52661075
          7.91331181     8.17377760     8.94850155     9.30559383     9.79945057
         10.56432559

4 B1g     0.48013322     1.36947197     1.59069259     3.19421957     3.45458319
          3.96817800     4.19048114     7.62852519     7.82691775     8.93367198
          9.46363237     9.87262645    10.83472773    20.74142448    21.39496708
         24.42195281    24.44818370    25.56409779    28.76512828

5 B1u   -26.42783167    -1.49748079     0.05683297     0.12407690     0.30303446
          0.63034813     0.63963606     0.71089555     1.51923227     1.61780591
          1.71753119     1.86329073     1.94129551     3.16765709     3.49288083
          3.90996217     3.93335647     4.30441481     4.45526738     4.54990380
          5.06814624     6.58661963

6 B2g    -0.66695359     0.17299556     0.62888802     0.76216895     1.50704437
          1.64107423     1.90536337     2.84360494     3.75833582     3.91806343
          4.03065789     4.54382096     5.88630665     6.69794088     8.03432693
          8.96593864     9.20123518     9.33926702     9.98624414    10.13697439
         11.10694646

7 B3g    -0.66695359     0.17299556     0.62888802     0.76216895     1.50704437
          1.64107423     1.90536337     2.84360494     3.75833582     3.91806343
          4.03065789     4.54382096     5.88630665     6.69794088     8.03432693
          8.96593864     9.20123518     9.33926702     9.98624414    10.13697439
         11.10694646

8 Au      0.63963606     1.61780591     1.94129551     3.49288083     3.90996217
          4.30441481     5.06814624     8.38242606     9.06576423     9.30354425
          9.85682032    10.93821059    11.43648318    21.05621356    21.60800721
         24.51581048    24.95212762    25.95790862    28.88575207

    E(LUMO) :     0.05683297 au (symmetry 5)
  - E(HOMO) :    -0.66695359 au (symmetry 6)
  ------------------------------------------
    gap     :     0.72378656 au

 --- Writing SIRIFC interface file

 CPU and wall time for SCF :      27.631      27.642


                       .-----------------------------------.
                       | --- Final results from SIRIUS --- |
                       `-----------------------------------'


@    Spin multiplicity:           1
@    Spatial symmetry:            1 ( irrep  Ag  in D2h )
@    Total charge of molecule:    0

@    Final HF energy:            -198.772997216917                 
@    Nuclear repulsion:            30.357999520269
@    Electronic energy:          -229.130996737186

@    Final gradient norm:           0.000008317093

 
     Date and time (Linux)  : Wed Jan 11 14:15:20 2023
     Host name              : cn040                                   

File label for MO orbitals:  11Jan23   FOCKDIIS

 (Only coefficients > 0.0100 are printed.)

 Molecular orbitals for symmetry species 1  (Ag )
 ------------------------------------------------

    Orbital         1        2        3        4        5        6        7
   1 F_b :1s     0.7072  -0.0014   0.0024   0.0041  -0.0040   0.0000   0.0059
   2 F_b :1s     0.0000   0.6662   0.1627  -0.0910   0.0814   0.0000  -0.0048
   3 F_b :1s    -0.0000  -0.0001   0.0007   0.0101  -0.0106   0.0000   0.0145
   4 F_b :1s    -0.0002  -0.0021   0.0068  -0.0346   0.0435   0.0000  -0.0807
   5 F_b :1s     0.0008  -0.0104   0.0087  -0.0277  -0.0194  -0.0000   0.2622
   6 F_b :1s    -0.0001  -0.0220   0.0462  -0.9230   1.2033  -0.0000   1.8374
   7 F_b :1s    -0.0001   0.0013   0.0103   1.2197  -0.6538   0.0000  -0.7711
   8 F_b :2pz   -0.0051  -0.0861   0.6334  -0.0752  -0.0156  -0.0000   0.1462
   9 F_b :2pz    0.0016   0.0003  -0.0024  -0.0000   0.0069  -0.0000   0.0293
  10 F_b :2pz    0.0014  -0.0040   0.0056   0.0026  -0.0192  -0.0000  -0.0747
  11 F_b :2pz    0.0018   0.0020   0.0095   0.1889  -0.1060   0.0000  -0.1261
  12 F_b :2pz    0.0010   0.0048  -0.0025  -0.6158   0.3053   0.0000   0.4344
  13 F_b :2pz    0.0000  -0.0001   0.0005   0.9531   1.3668  -0.0000   1.3067
  17 F_b :3d2+  -0.0000  -0.0000  -0.0000   0.0000  -0.0000   0.0156  -0.0000
  18 F_b :3d0    0.0002   0.0061  -0.0146  -0.0347   0.0077   0.0000  -0.0337
  19 F_b :3d2+   0.0000   0.0000   0.0000  -0.0000   0.0000  -0.0788  -0.0000
  20 F_b :3d0   -0.0003   0.0086  -0.0185   0.0733   0.0156  -0.0000   0.0842
  21 F_b :3d2+  -0.0000  -0.0000  -0.0000   0.0000  -0.0000   0.1779   0.0000
  22 F_b :3d0   -0.0003   0.0031  -0.0083   0.2480  -0.5313   0.0000  -1.7671
  23 F_b :3d2+   0.0000   0.0000  -0.0000  -0.0000   0.0000  -0.6605  -0.0000
  28 F_b :4f0    0.0000  -0.0040   0.0066   0.0143  -0.0277   0.0000  -0.0322
  29 F_b :4f2+  -0.0000   0.0000   0.0000  -0.0000   0.0000   0.0140   0.0000
  30 F_b :4f0    0.0002  -0.0031   0.0029  -0.1225   0.1415  -0.0000   0.2959
  31 F_b :4f2+   0.0000  -0.0000  -0.0000   0.0000  -0.0000  -0.0282  -0.0000
  38 F_b :5g0   -0.0001   0.0015  -0.0014   0.0148  -0.0087  -0.0000  -0.0350

    Orbital         8        9       10       11       12       13
   1 F_b :1s     0.0041   0.0650  -0.0000   0.0000  -0.0515   0.0527
   2 F_b :1s     0.2242   0.5117  -0.0000   0.0000  -0.2618   0.3602
   3 F_b :1s    -0.0142   0.1253  -0.0000   0.0000  -0.1166   0.1221
   4 F_b :1s     0.1837  -0.6183   0.0000   0.0000   0.6592  -0.7637
   5 F_b :1s    -0.8504   1.8182   0.0000  -0.0000  -2.4068   3.0638
   6 F_b :1s    -4.7985   0.1667  -0.0000  -0.0000  -1.8782   1.0928
   7 F_b :1s     2.4918  -0.4940  -0.0000   0.0000   1.4071  -1.3265
   8 F_b :2pz    0.1675  -0.1014   0.0000  -0.0000   0.0101   0.4030
   9 F_b :2pz   -0.0303   0.0256  -0.0000  -0.0000  -0.1081   0.0287
  10 F_b :2pz    0.0998  -0.0871  -0.0000   0.0000   0.3281  -0.0538
  11 F_b :2pz    1.4653  -0.7353  -0.0000   0.0000   0.8487  -2.3592
  12 F_b :2pz   -4.4486   2.2131  -0.0000  -0.0000  -3.1951   4.2272
  13 F_b :2pz   -0.2161   0.1913   0.0000   0.0000  -0.5577  -0.3006
  14 F_b :3d0   -0.0081   0.0021   0.0000   0.0000  -0.0043   0.0165
  16 F_b :3d0    0.0412  -0.0091   0.0000   0.0000  -0.0045  -0.1125
  17 F_b :3d2+  -0.0000  -0.0000  -0.0317   0.0733   0.0000  -0.0000
  18 F_b :3d0   -0.1961   0.0903   0.0000   0.0000  -0.1433   0.4288
  19 F_b :3d2+   0.0000   0.0000   0.0548  -0.1564  -0.0000   0.0000
  20 F_b :3d0    0.3287  -0.0278  -0.0000  -0.0000  -0.2421  -1.2031
  21 F_b :3d2+  -0.0000  -0.0000  -0.3461   0.9654   0.0000  -0.0000
  22 F_b :3d0    3.0397  -1.8353  -0.0000   0.0000   2.8592  -2.0858
  23 F_b :3d2+   0.0000   0.0000   0.2866  -0.4061  -0.0000   0.0000
  26 F_b :4f0    0.0034  -0.0400  -0.0000  -0.0000  -0.0081  -0.0370
  27 F_b :4f2+  -0.0000   0.0000   0.0483   0.0277   0.0000  -0.0000
  28 F_b :4f0    0.0635   0.0734   0.0000   0.0000   0.1151   0.0104
  29 F_b :4f2+   0.0000  -0.0000  -0.1737  -0.1161  -0.0000   0.0000
  30 F_b :4f0   -0.9492   0.1844   0.0000   0.0000  -1.4396   1.3056
  31 F_b :4f2+  -0.0000  -0.0000   0.6332   0.4093   0.0000  -0.0000
  35 F_b :5g0   -0.0247   0.0240   0.0000   0.0000  -0.0247   0.0347
  36 F_b :5g2+  -0.0000  -0.0000  -0.0116  -0.0010   0.0000  -0.0000
  38 F_b :5g0    0.1442  -0.1109  -0.0000  -0.0000   0.1547  -0.2485
  39 F_b :5g2+   0.0000   0.0000   0.0282   0.0054  -0.0000   0.0000
  41 F_b :6h0    0.0057  -0.0046  -0.0000  -0.0000   0.0082  -0.0125
  44 F_b :6h0   -0.0214   0.0154  -0.0000   0.0000  -0.0304   0.0473
  45 F_b :6h2+   0.0000  -0.0000   0.0078   0.0105   0.0000   0.0000

 Molecular orbitals for symmetry species 2  (B3u)
 ------------------------------------------------

    Orbital         1        2        3        4        5        6        7
   1 F_b :2px    0.6840  -0.1185   0.2594   0.1367  -0.0000   0.1965  -0.2826
   2 F_b :2px   -0.0010   0.0134   0.0526   0.0172   0.0000  -0.0164   0.0399
   3 F_b :2px   -0.0015  -0.0362  -0.1377  -0.0487   0.0000   0.0768  -0.1111
   4 F_b :2px   -0.0046   0.1229   0.5382   0.2814   0.0000  -0.4192  -0.2915
   5 F_b :2px   -0.0162  -0.3414  -1.3796  -0.1176   0.0000  -0.0160  -0.0788
   6 F_b :2px    0.0005   0.7112   0.5635   0.0477  -0.0000   0.0072   0.1107
   8 F_b :3d1+  -0.0018   0.0013   0.0067  -0.0118   0.0000   0.0593   0.0034
   9 F_b :3d1+  -0.0073  -0.0015  -0.0358   0.0686  -0.0000  -0.0804  -0.0225
  10 F_b :3d1+  -0.0077   0.0043   0.0745  -0.2098   0.0000   0.9310   0.4630
  11 F_b :3d1+  -0.0002  -0.0119  -0.3393   0.8818  -0.0000  -0.7399  -0.7589
  12 F_b :4f1+   0.0004  -0.0004  -0.0006  -0.0008  -0.0000   0.0009  -0.0107
  13 F_b :4f3+   0.0000  -0.0000   0.0000   0.0000  -0.0107   0.0000  -0.0000
  14 F_b :4f1+   0.0020   0.0009   0.0047   0.0039   0.0000  -0.0055   0.0581
  15 F_b :4f3+  -0.0000   0.0000  -0.0000  -0.0000   0.0548  -0.0000   0.0000
  16 F_b :4f1+   0.0043  -0.0030  -0.0078   0.0035   0.0000  -0.0365  -0.2871
  17 F_b :4f3+  -0.0000  -0.0000  -0.0000  -0.0000  -0.2024  -0.0000   0.0000
  18 F_b :4f1+   0.0009  -0.0005   0.0216  -0.0680  -0.0000   0.2323   1.3768
  19 F_b :4f3+   0.0000  -0.0000   0.0000   0.0000   0.7221   0.0000  -0.0000
  22 F_b :5g1+  -0.0008  -0.0021  -0.0034  -0.0175  -0.0000   0.0425   0.0245
  24 F_b :5g1+  -0.0008   0.0066   0.0073   0.0548  -0.0000  -0.1324  -0.1109
  25 F_b :5g3+  -0.0000   0.0000  -0.0000  -0.0000   0.0150  -0.0000   0.0000
  29 F_b :6h1+   0.0005  -0.0008  -0.0012  -0.0039   0.0000   0.0114   0.0342

    Orbital         8        9       10       11
   1 F_b :2px   -0.7398  -0.0000  -0.1475  -0.0000
   2 F_b :2px    0.1832  -0.0000  -0.0408   0.0000
   3 F_b :2px   -0.6508   0.0000   0.0781   0.0000
   4 F_b :2px    2.3782   0.0000  -0.1142   0.0000
   5 F_b :2px   -1.0291  -0.0000   0.0817   0.0000
   6 F_b :2px    0.2780   0.0000  -0.0208  -0.0000
   7 F_b :3d1+  -0.0031   0.0000  -0.0289   0.0000
   8 F_b :3d1+   0.0270   0.0000   0.0633   0.0000
   9 F_b :3d1+  -0.0587   0.0000  -0.5481   0.0000
  10 F_b :3d1+   0.0761  -0.0000   0.5890   0.0000
  11 F_b :3d1+   0.2006  -0.0000  -0.3289  -0.0000
  12 F_b :4f1+   0.0014  -0.0000   0.0173  -0.0000
  13 F_b :4f3+  -0.0000  -0.0060  -0.0000  -0.0373
  14 F_b :4f1+  -0.0139  -0.0000  -0.0608  -0.0000
  15 F_b :4f3+   0.0000   0.0249   0.0000   0.1562
  16 F_b :4f1+   0.1067  -0.0000   0.4182  -0.0000
  17 F_b :4f3+   0.0000  -0.1485   0.0000  -1.0033
  18 F_b :4f1+  -0.6085  -0.0000  -0.0523  -0.0000
  19 F_b :4f3+  -0.0000   0.1646  -0.0000   0.4426
  20 F_b :5g1+   0.0045  -0.0000  -0.0176   0.0000
  21 F_b :5g3+  -0.0000   0.0257  -0.0000  -0.0056
  22 F_b :5g1+  -0.0336   0.0000   0.1103   0.0000
  23 F_b :5g3+   0.0000  -0.1646   0.0000   0.0380
  24 F_b :5g1+   0.1285  -0.0000  -0.4674  -0.0000
  25 F_b :5g3+   0.0000   0.6921   0.0000  -0.1432
  29 F_b :6h1+  -0.0256   0.0000  -0.0127   0.0000
  30 F_b :6h3+   0.0000   0.0190   0.0000  -0.0181

 Molecular orbitals for symmetry species 3  (B2u)
 ------------------------------------------------

    Orbital         1        2        3        4        5        6        7
   1 F_b :2py    0.6840  -0.1185   0.2594   0.1367   0.0000   0.1965  -0.2826
   2 F_b :2py   -0.0010   0.0134   0.0526   0.0172  -0.0000  -0.0164   0.0399
   3 F_b :2py   -0.0015  -0.0362  -0.1377  -0.0487  -0.0000   0.0768  -0.1111
   4 F_b :2py   -0.0046   0.1229   0.5382   0.2814  -0.0000  -0.4192  -0.2915
   5 F_b :2py   -0.0162  -0.3414  -1.3796  -0.1176  -0.0000  -0.0160  -0.0788
   6 F_b :2py    0.0005   0.7112   0.5635   0.0477   0.0000   0.0072   0.1107
   8 F_b :3d1-  -0.0018   0.0013   0.0067  -0.0118  -0.0000   0.0593   0.0034
   9 F_b :3d1-  -0.0073  -0.0015  -0.0358   0.0686   0.0000  -0.0804  -0.0225
  10 F_b :3d1-  -0.0077   0.0043   0.0745  -0.2098  -0.0000   0.9310   0.4630
  11 F_b :3d1-  -0.0002  -0.0119  -0.3393   0.8818   0.0000  -0.7399  -0.7589
  12 F_b :4f3-  -0.0000   0.0000  -0.0000  -0.0000  -0.0107  -0.0000   0.0000
  13 F_b :4f1-   0.0004  -0.0004  -0.0006  -0.0008   0.0000   0.0009  -0.0107
  14 F_b :4f3-   0.0000  -0.0000   0.0000   0.0000   0.0548   0.0000  -0.0000
  15 F_b :4f1-   0.0020   0.0009   0.0047   0.0039  -0.0000  -0.0055   0.0581
  16 F_b :4f3-   0.0000  -0.0000   0.0000   0.0000  -0.2024   0.0000  -0.0000
  17 F_b :4f1-   0.0043  -0.0030  -0.0078   0.0035  -0.0000  -0.0365  -0.2871
  18 F_b :4f3-  -0.0000   0.0000  -0.0000  -0.0000   0.7221  -0.0000   0.0000
  19 F_b :4f1-   0.0009  -0.0005   0.0216  -0.0680   0.0000   0.2323   1.3768
  23 F_b :5g1-  -0.0008  -0.0021  -0.0034  -0.0175   0.0000   0.0425   0.0245
  24 F_b :5g3-   0.0000  -0.0000   0.0000   0.0000   0.0150   0.0000  -0.0000
  25 F_b :5g1-  -0.0008   0.0066   0.0073   0.0548   0.0000  -0.1324  -0.1109
  31 F_b :6h1-   0.0005  -0.0008  -0.0012  -0.0039  -0.0000   0.0114   0.0342

    Orbital         8        9       10       11
   1 F_b :2py   -0.7398   0.0000  -0.1475   0.0000
   2 F_b :2py    0.1832   0.0000  -0.0408  -0.0000
   3 F_b :2py   -0.6508  -0.0000   0.0781  -0.0000
   4 F_b :2py    2.3782  -0.0000  -0.1142  -0.0000
   5 F_b :2py   -1.0291   0.0000   0.0817  -0.0000
   6 F_b :2py    0.2780  -0.0000  -0.0208   0.0000
   7 F_b :3d1-  -0.0031  -0.0000  -0.0289  -0.0000
   8 F_b :3d1-   0.0270  -0.0000   0.0633  -0.0000
   9 F_b :3d1-  -0.0587  -0.0000  -0.5481  -0.0000
  10 F_b :3d1-   0.0761   0.0000   0.5890  -0.0000
  11 F_b :3d1-   0.2006   0.0000  -0.3289   0.0000
  12 F_b :4f3-   0.0000  -0.0060   0.0000  -0.0373
  13 F_b :4f1-   0.0014   0.0000   0.0173   0.0000
  14 F_b :4f3-  -0.0000   0.0249  -0.0000   0.1562
  15 F_b :4f1-  -0.0139   0.0000  -0.0608   0.0000
  16 F_b :4f3-  -0.0000  -0.1485  -0.0000  -1.0033
  17 F_b :4f1-   0.1067   0.0000   0.4182   0.0000
  18 F_b :4f3-   0.0000   0.1646   0.0000   0.4426
  19 F_b :4f1-  -0.6085   0.0000  -0.0523   0.0000
  20 F_b :5g3-  -0.0000   0.0257  -0.0000  -0.0056
  21 F_b :5g1-   0.0045  -0.0000  -0.0176  -0.0000
  22 F_b :5g3-   0.0000  -0.1646   0.0000   0.0380
  23 F_b :5g1-  -0.0336  -0.0000   0.1103  -0.0000
  24 F_b :5g3-  -0.0000   0.6921  -0.0000  -0.1432
  25 F_b :5g1-   0.1285   0.0000  -0.4674   0.0000
  30 F_b :6h3-  -0.0000   0.0190  -0.0000  -0.0181
  31 F_b :6h1-  -0.0256  -0.0000  -0.0127  -0.0000

 Molecular orbitals for symmetry species 4  (B1g)
 ------------------------------------------------

    Orbital         1        2        3        4        5        6        7
   1 F_b :3d2-  -0.0051  -0.0032  -0.0088   0.0000  -0.0084  -0.0072   0.0564
   2 F_b :3d2-   0.0156   0.0317   0.0733   0.0000   0.0272   0.0166  -0.1260
   3 F_b :3d2-  -0.0788  -0.0548  -0.1564   0.0000  -0.1594  -0.1522   1.1335
   4 F_b :3d2-   0.1779   0.3461   0.9654   0.0000   0.2808   0.3293  -0.8560
   5 F_b :3d2-  -0.6605  -0.2866  -0.4061   0.0000  -0.1339  -0.0697   0.2598
   6 F_b :4f2-   0.0008   0.0090  -0.0055   0.0000   0.0237  -0.0275  -0.0003
   7 F_b :4f2-  -0.0032  -0.0483   0.0277   0.0000  -0.0930   0.1213   0.0010
   8 F_b :4f2-   0.0140   0.1737  -0.1161   0.0000   0.6144  -0.8319  -0.0212
   9 F_b :4f2-  -0.0282  -0.6332   0.4093   0.0000  -0.3143   0.4691  -0.0228
  10 F_b :5g4-   0.0000   0.0000   0.0000   0.0283   0.0000   0.0000   0.0000
  11 F_b :5g2-  -0.0004  -0.0017   0.0005   0.0000  -0.0167  -0.0223  -0.0052
  12 F_b :5g4-   0.0000   0.0000   0.0000  -0.1845   0.0000   0.0000   0.0000
  13 F_b :5g2-   0.0021   0.0116  -0.0010   0.0000   0.1031   0.1535   0.0409
  14 F_b :5g4-   0.0000   0.0000   0.0000   0.7716   0.0000   0.0000   0.0000
  15 F_b :5g2-  -0.0082  -0.0282   0.0054   0.0000  -0.4509  -0.6683  -0.1459
  19 F_b :6h2-   0.0010  -0.0078   0.0105   0.0000  -0.0343  -0.0240  -0.0351

    Orbital         8        9       10
   2 F_b :3d2-   0.0000  -0.0508   0.0000
   3 F_b :3d2-   0.0000  -0.0253   0.0000
   4 F_b :3d2-   0.0000   0.0254   0.0000
   5 F_b :3d2-   0.0000  -0.0136   0.0000
   6 F_b :4f2-   0.0000   0.0194   0.0000
   7 F_b :4f2-   0.0000  -0.1228   0.0000
   8 F_b :4f2-   0.0000   0.1995   0.0000
   9 F_b :4f2-   0.0000  -0.1039   0.0000
  10 F_b :5g4-   0.0009   0.0000  -0.0841
  11 F_b :5g2-   0.0000  -0.0454   0.0000
  12 F_b :5g4-  -0.0051   0.0000   0.9427
  13 F_b :5g2-   0.0000   0.4765   0.0000
  14 F_b :5g4-   0.0535   0.0000  -0.4333
  15 F_b :5g2-   0.0000  -0.2288   0.0000
  16 F_b :6h4-  -0.1467   0.0000   0.0009
  17 F_b :6h2-   0.0000   0.0890   0.0000
  18 F_b :6h4-   0.7556   0.0000  -0.0143
  19 F_b :6h2-   0.0000  -0.5391   0.0000

 Molecular orbitals for symmetry species 5  (B1u)
 ------------------------------------------------

    Orbital         1        2        3        4        5        6        7
   1 F_b :1s     0.7073   0.0011  -0.0040   0.0008  -0.0093   0.0162  -0.0000
   2 F_b :1s     0.0003   0.7269  -0.2008  -0.1312   0.0060   0.0524  -0.0000
   3 F_b :1s     0.0001   0.0004  -0.0033   0.0071  -0.0247   0.0366  -0.0000
   4 F_b :1s    -0.0008   0.0021   0.0097  -0.0321   0.1072  -0.1577  -0.0000
   5 F_b :1s     0.0005   0.0012   0.1071  -0.3188   0.8387  -0.4990   0.0000
   6 F_b :1s     0.0012   0.0255  -1.3677   2.6764  -7.6589   4.7464   0.0000
   7 F_b :1s     0.0002   0.0167  -3.7833   7.9345 -17.9648   4.8662  -0.0000
   8 F_b :2pz   -0.0049   0.0960   0.4591   0.5176   0.2437   0.2954  -0.0000
   9 F_b :2pz    0.0016  -0.0016   0.0064  -0.0114   0.0270   0.0091   0.0000
  10 F_b :2pz    0.0018  -0.0016  -0.0389   0.1015  -0.2556   0.1425   0.0000
  11 F_b :2pz    0.0004  -0.0098   0.3944  -0.7500   2.2346  -1.4449   0.0000
  12 F_b :2pz    0.0003  -0.0216   1.3942  -2.7315   7.9198  -4.4182   0.0000
  13 F_b :2pz   -0.0000  -0.0015   1.2252  -2.1145   3.0897  -0.2835   0.0000
  17 F_b :3d2+  -0.0000   0.0000  -0.0000  -0.0000  -0.0000  -0.0000  -0.0167
  18 F_b :3d0    0.0001  -0.0037   0.0073   0.0068   0.0239  -0.0789   0.0000
  19 F_b :3d2+   0.0000  -0.0000   0.0000   0.0000   0.0000   0.0000   0.0786
  20 F_b :3d0    0.0006  -0.0032  -0.1610   0.3933  -1.1584   1.1372   0.0000
  21 F_b :3d2+  -0.0000  -0.0000  -0.0000  -0.0000  -0.0000  -0.0000  -0.1910
  22 F_b :3d0    0.0001   0.0025  -0.3376   0.8252  -1.9269   0.0867  -0.0000
  23 F_b :3d2+   0.0000   0.0000  -0.0000  -0.0000  -0.0000  -0.0000   1.3127
  26 F_b :4f0    0.0000   0.0007  -0.0028   0.0068  -0.0204   0.0205  -0.0000
  28 F_b :4f0   -0.0003   0.0005   0.0291  -0.0670   0.2008  -0.1845   0.0000
  29 F_b :4f2+  -0.0000   0.0000   0.0000   0.0000   0.0000   0.0000   0.0212
  30 F_b :4f0   -0.0001  -0.0005   0.0670  -0.1516   0.3926  -0.2125  -0.0000
  31 F_b :4f2+  -0.0000  -0.0000   0.0000   0.0000   0.0000   0.0000  -0.1722
  35 F_b :5g0    0.0000  -0.0003  -0.0008   0.0028  -0.0104   0.0170  -0.0000
  36 F_b :5g2+   0.0000  -0.0000   0.0000   0.0000   0.0000   0.0000  -0.0109
  38 F_b :5g0    0.0001   0.0001  -0.0136   0.0326  -0.0818   0.0395   0.0000
  39 F_b :5g2+   0.0000   0.0000  -0.0000  -0.0000  -0.0000  -0.0000   0.0433
  44 F_b :6h0   -0.0000   0.0001   0.0018  -0.0041   0.0112  -0.0074   0.0000

    Orbital         8        9       10       11       12
   1 F_b :1s     0.0180   0.0231   0.0000  -0.0205   0.0708
   2 F_b :1s     0.2423  -0.2130   0.0000  -0.1337   0.4190
   3 F_b :1s     0.0353   0.0858  -0.0000  -0.0382   0.1455
   4 F_b :1s    -0.1336  -0.3695   0.0000   0.2052  -0.6808
   5 F_b :1s    -1.6680  -4.1952  -0.0000  -1.1962   0.3608
   6 F_b :1s    15.8406  31.8957  -0.0000   1.0174   7.4973
   7 F_b :1s    20.7098  19.4116  -0.0000   0.3970   1.9816
   8 F_b :2pz    0.1624  -0.1340  -0.0000  -0.2792  -0.3909
   9 F_b :2pz   -0.0566  -0.1295   0.0000   0.0538   0.0059
  10 F_b :2pz    0.5073   1.1819   0.0000  -0.0922   0.2536
  11 F_b :2pz   -4.2254 -10.2445   0.0000   0.5160  -3.8573
  12 F_b :2pz  -13.6490 -18.2144   0.0000  -0.8258  -3.2192
  13 F_b :2pz   -2.7860  -2.1937  -0.0000   0.1188  -0.0680
  16 F_b :3d0   -0.0148  -0.0335   0.0000   0.0201   0.0535
  17 F_b :3d2+  -0.0000   0.0000   0.0434   0.0000   0.0000
  18 F_b :3d0   -0.0133  -0.0885   0.0000  -0.0521  -0.1805
  19 F_b :3d2+   0.0000  -0.0000  -0.0582  -0.0000  -0.0000
  20 F_b :3d0    2.1459   5.1085  -0.0000   0.6225   3.0323
  21 F_b :3d2+  -0.0000   0.0000   0.4682   0.0000   0.0000
  22 F_b :3d0    3.8522   5.0771  -0.0000  -0.7468   0.6590
  23 F_b :3d2+  -0.0000   0.0000  -1.3055   0.0000   0.0000
  24 F_b :4f0   -0.0057  -0.0129  -0.0000  -0.0097  -0.0008
  26 F_b :4f0    0.0394   0.0860  -0.0000   0.0550   0.0109
  27 F_b :4f2+  -0.0000   0.0000   0.0353   0.0000   0.0000
  28 F_b :4f0   -0.3754  -0.8747   0.0000  -0.2876  -0.2413
  29 F_b :4f2+   0.0000  -0.0000  -0.1477  -0.0000  -0.0000
  30 F_b :4f0   -0.7482  -1.7938   0.0000   1.2425  -1.2592
  31 F_b :4f2+   0.0000  -0.0000   1.3003  -0.0000  -0.0000
  35 F_b :5g0    0.0180   0.0432   0.0000   0.0405   0.0185
  36 F_b :5g2+  -0.0000   0.0000   0.0381  -0.0000  -0.0000
  38 F_b :5g0    0.1588   0.3707  -0.0000  -0.1049   0.1448
  39 F_b :5g2+  -0.0000   0.0000  -0.1885   0.0000   0.0000
  44 F_b :6h0   -0.0203  -0.0486   0.0000   0.0148  -0.0271
  45 F_b :6h2+   0.0000  -0.0000   0.0236  -0.0000  -0.0000

 Molecular orbitals for symmetry species 6  (B2g)
 ------------------------------------------------

    Orbital         1        2        3        4        5        6        7
   1 F_b :2px    0.7450  -0.0864  -0.2303   0.1076  -0.0000   0.0724   0.6052
   2 F_b :2px   -0.0000   0.0093  -0.0423  -0.0209   0.0000   0.0882  -0.1017
   3 F_b :2px   -0.0020  -0.0178   0.1010   0.1530   0.0000  -0.4267   0.2655
   4 F_b :2px    0.0034   0.0383  -0.3947  -0.7485   0.0000   2.2312  -0.4311
   5 F_b :2px    0.0112  -0.4582   0.4016  -8.2441   0.0000   7.4080   2.6948
   6 F_b :2px    0.0027   2.0648  -1.4103  -0.0029   0.0000   0.1185  -0.7255
   8 F_b :3d1+  -0.0001   0.0044  -0.0103   0.0146   0.0000  -0.0210  -0.0685
   9 F_b :3d1+   0.0008  -0.0168   0.0574  -0.1072   0.0000   0.2379   0.2288
  10 F_b :3d1+   0.0026   0.1107  -0.1984   1.1535  -0.0000  -2.1696  -1.9708
  11 F_b :3d1+   0.0000  -0.0224   1.1306   5.1638  -0.0000  -4.8096  -0.6828
  13 F_b :4f3+   0.0000  -0.0000  -0.0000   0.0000   0.0115   0.0000   0.0000
  14 F_b :4f1+   0.0008   0.0034  -0.0085   0.0231  -0.0000  -0.0325  -0.0430
  15 F_b :4f3+  -0.0000   0.0000   0.0000  -0.0000  -0.0599  -0.0000  -0.0000
  16 F_b :4f1+   0.0002  -0.0204   0.0433  -0.1667  -0.0000   0.2942   0.2732
  17 F_b :4f3+   0.0000  -0.0000  -0.0000   0.0000   0.2338   0.0000   0.0000
  18 F_b :4f1+  -0.0002  -0.0435  -0.0474  -1.2661   0.0000   2.6200   0.7813
  19 F_b :4f3+  -0.0000   0.0000   0.0000  -0.0000  -1.0051  -0.0000  -0.0000
  22 F_b :5g1+   0.0003   0.0001  -0.0031  -0.0142   0.0000   0.0172  -0.0024
  24 F_b :5g1+   0.0005   0.0171  -0.0143   0.2711  -0.0000  -0.4793  -0.2568
  25 F_b :5g3+   0.0000  -0.0000  -0.0000   0.0000   0.0188   0.0000   0.0000
  26 F_b :6h1+   0.0000   0.0007  -0.0009   0.0083  -0.0000  -0.0156  -0.0093
  29 F_b :6h1+  -0.0001  -0.0035   0.0052  -0.0436  -0.0000   0.0828   0.0510

    Orbital         8        9       10       11
   1 F_b :2px    0.5474  -0.1627   0.0000   0.0000
   2 F_b :2px   -0.1901   0.1084  -0.0000  -0.0000
   3 F_b :2px    0.8947  -0.8189  -0.0000  -0.0000
   4 F_b :2px   -3.8646   4.6252  -0.0000  -0.0000
   5 F_b :2px   -4.2350   4.5753   0.0000  -0.0000
   6 F_b :2px   -0.1157   0.0165  -0.0000  -0.0000
   8 F_b :3d1+   0.0754  -0.0121  -0.0000  -0.0000
   9 F_b :3d1+  -0.2284   0.2737  -0.0000  -0.0000
  10 F_b :3d1+   3.2429  -4.4737   0.0000   0.0000
  11 F_b :3d1+   2.7625  -2.8806   0.0000   0.0000
  12 F_b :4f1+  -0.0021   0.0145   0.0000   0.0000
  13 F_b :4f3+   0.0000  -0.0000   0.0276   0.0253
  14 F_b :4f1+   0.0296  -0.1191   0.0000   0.0000
  15 F_b :4f3+  -0.0000   0.0000  -0.1152  -0.1044
  16 F_b :4f1+  -0.1879   0.8370  -0.0000  -0.0000
  17 F_b :4f3+  -0.0000   0.0000   0.7852   0.7202
  18 F_b :4f1+  -2.1487   2.4897  -0.0000  -0.0000
  19 F_b :4f3+  -0.0000   0.0000  -0.6811  -0.1715
  20 F_b :5g1+  -0.0067  -0.0158  -0.0000  -0.0000
  21 F_b :5g3+   0.0000  -0.0000   0.0207  -0.0226
  22 F_b :5g1+   0.0273   0.1351  -0.0000  -0.0000
  23 F_b :5g3+  -0.0000   0.0000  -0.1449   0.1569
  24 F_b :5g1+   0.2751  -1.7390   0.0000   0.0000
  25 F_b :5g3+   0.0000  -0.0000   0.7406  -0.8008
  26 F_b :6h1+   0.0165  -0.0291   0.0000   0.0000
  29 F_b :6h1+  -0.0846   0.1719   0.0000  -0.0000
  30 F_b :6h3+  -0.0000   0.0000  -0.0129  -0.0115

 Molecular orbitals for symmetry species 7  (B3g)
 ------------------------------------------------

    Orbital         1        2        3        4        5        6        7
   1 F_b :2py    0.7450  -0.0864  -0.2303   0.1076   0.0000   0.0724   0.6052
   2 F_b :2py   -0.0000   0.0093  -0.0423  -0.0209  -0.0000   0.0882  -0.1017
   3 F_b :2py   -0.0020  -0.0178   0.1010   0.1530  -0.0000  -0.4267   0.2655
   4 F_b :2py    0.0034   0.0383  -0.3947  -0.7485  -0.0000   2.2312  -0.4311
   5 F_b :2py    0.0112  -0.4582   0.4016  -8.2441  -0.0000   7.4080   2.6948
   6 F_b :2py    0.0027   2.0648  -1.4103  -0.0029  -0.0000   0.1185  -0.7255
   8 F_b :3d1-  -0.0001   0.0044  -0.0103   0.0146  -0.0000  -0.0210  -0.0685
   9 F_b :3d1-   0.0008  -0.0168   0.0574  -0.1072  -0.0000   0.2379   0.2288
  10 F_b :3d1-   0.0026   0.1107  -0.1984   1.1535   0.0000  -2.1696  -1.9708
  11 F_b :3d1-   0.0000  -0.0224   1.1306   5.1638   0.0000  -4.8096  -0.6828
  12 F_b :4f3-  -0.0000   0.0000   0.0000  -0.0000   0.0115  -0.0000  -0.0000
  14 F_b :4f3-   0.0000  -0.0000  -0.0000   0.0000  -0.0599   0.0000   0.0000
  15 F_b :4f1-   0.0008   0.0034  -0.0085   0.0231   0.0000  -0.0325  -0.0430
  16 F_b :4f3-   0.0000   0.0000  -0.0000   0.0000   0.2338   0.0000   0.0000
  17 F_b :4f1-   0.0002  -0.0204   0.0433  -0.1667   0.0000   0.2942   0.2732
  18 F_b :4f3-   0.0000  -0.0000  -0.0000   0.0000  -1.0051   0.0000   0.0000
  19 F_b :4f1-  -0.0002  -0.0435  -0.0474  -1.2661  -0.0000   2.6200   0.7813
  23 F_b :5g1-   0.0003   0.0001  -0.0031  -0.0142  -0.0000   0.0172  -0.0024
  24 F_b :5g3-  -0.0000   0.0000   0.0000  -0.0000   0.0188  -0.0000  -0.0000
  25 F_b :5g1-   0.0005   0.0171  -0.0143   0.2711   0.0000  -0.4793  -0.2568
  28 F_b :6h1-   0.0000   0.0007  -0.0009   0.0083   0.0000  -0.0156  -0.0093
  31 F_b :6h1-  -0.0001  -0.0035   0.0052  -0.0436   0.0000   0.0828   0.0510

    Orbital         8        9       10       11
   1 F_b :2py    0.5474  -0.1627  -0.0000  -0.0000
   2 F_b :2py   -0.1901   0.1084   0.0000   0.0000
   3 F_b :2py    0.8947  -0.8189   0.0000   0.0000
   4 F_b :2py   -3.8646   4.6252   0.0000   0.0000
   5 F_b :2py   -4.2350   4.5753  -0.0000   0.0000
   6 F_b :2py   -0.1157   0.0165   0.0000   0.0000
   8 F_b :3d1-   0.0754  -0.0121   0.0000   0.0000
   9 F_b :3d1-  -0.2284   0.2737   0.0000   0.0000
  10 F_b :3d1-   3.2429  -4.4737  -0.0000  -0.0000
  11 F_b :3d1-   2.7625  -2.8806  -0.0000  -0.0000
  12 F_b :4f3-  -0.0000   0.0000   0.0276   0.0253
  13 F_b :4f1-  -0.0021   0.0145  -0.0000  -0.0000
  14 F_b :4f3-   0.0000  -0.0000  -0.1152  -0.1044
  15 F_b :4f1-   0.0296  -0.1191  -0.0000  -0.0000
  16 F_b :4f3-   0.0000  -0.0000   0.7852   0.7202
  17 F_b :4f1-  -0.1879   0.8370   0.0000   0.0000
  18 F_b :4f3-   0.0000  -0.0000  -0.6811  -0.1715
  19 F_b :4f1-  -2.1487   2.4897   0.0000   0.0000
  20 F_b :5g3-  -0.0000   0.0000   0.0207  -0.0226
  21 F_b :5g1-  -0.0067  -0.0158   0.0000   0.0000
  22 F_b :5g3-   0.0000  -0.0000  -0.1449   0.1569
  23 F_b :5g1-   0.0273   0.1351   0.0000   0.0000
  24 F_b :5g3-  -0.0000   0.0000   0.7406  -0.8008
  25 F_b :5g1-   0.2751  -1.7390  -0.0000  -0.0000
  28 F_b :6h1-   0.0165  -0.0291  -0.0000  -0.0000
  30 F_b :6h3-   0.0000  -0.0000  -0.0129  -0.0115
  31 F_b :6h1-  -0.0846   0.1719  -0.0000   0.0000

 Molecular orbitals for symmetry species 8  (Au )
 ------------------------------------------------

    Orbital         1        2        3        4        5        6        7
   1 F_b :3d2-   0.0051  -0.0036  -0.0078   0.0000  -0.0154   0.0516  -0.0237
   2 F_b :3d2-  -0.0167   0.0434   0.0700   0.0000   0.0203  -0.1158   0.0690
   3 F_b :3d2-   0.0786  -0.0582  -0.1585   0.0000  -0.2530   1.0792  -0.5929
   4 F_b :3d2-  -0.1910   0.4682   1.1160   0.0000  -0.5223  -1.1231   1.5088
   5 F_b :3d2-   1.3127  -1.3055   0.3258   0.0000  -0.8239   0.0575   0.1123
   6 F_b :4f2-   0.0010  -0.0067   0.0074   0.0000  -0.0150  -0.0151  -0.0290
   7 F_b :4f2-  -0.0042   0.0353  -0.0387   0.0000   0.0531   0.0560   0.1237
   8 F_b :4f2-   0.0212  -0.1477   0.1701   0.0000  -0.4457  -0.4998  -1.0776
   9 F_b :4f2-  -0.1722   1.3003  -1.4061   0.0000   1.4964   0.6960  -0.7491
  10 F_b :5g4-   0.0000   0.0000   0.0000   0.0288   0.0000   0.0000   0.0000
  11 F_b :5g2-   0.0017  -0.0053   0.0012   0.0000  -0.0236   0.0014   0.0234
  12 F_b :5g4-   0.0000   0.0000   0.0000  -0.1911   0.0000   0.0000   0.0000
  13 F_b :5g2-  -0.0109   0.0381  -0.0129   0.0000   0.1748   0.0016  -0.1907
  14 F_b :5g4-   0.0000   0.0000   0.0000   0.8544   0.0000   0.0000   0.0000
  15 F_b :5g2-   0.0433  -0.1885   0.1078   0.0000  -1.1222  -0.1380   1.3705
  17 F_b :6h2-   0.0006  -0.0057   0.0071   0.0000  -0.0185  -0.0117   0.0019
  19 F_b :6h2-  -0.0027   0.0236  -0.0273   0.0000   0.0839   0.0499  -0.0182

    Orbital         8        9       10
   2 F_b :3d2-   0.0000   0.0000   0.0266
   3 F_b :3d2-   0.0000   0.0000   0.1341
   4 F_b :3d2-   0.0000   0.0000  -0.9304
   5 F_b :3d2-   0.0000   0.0000  -0.3892
   6 F_b :4f2-   0.0000   0.0000  -0.0320
   7 F_b :4f2-   0.0000   0.0000   0.3351
   8 F_b :4f2-   0.0000   0.0000   0.2150
   9 F_b :4f2-   0.0000   0.0000   0.9837
  10 F_b :5g4-   0.0099   0.0834   0.0000
  11 F_b :5g2-   0.0000   0.0000  -0.0544
  12 F_b :5g4-  -0.1066  -0.9568   0.0000
  13 F_b :5g2-   0.0000   0.0000   0.6937
  14 F_b :5g4-  -0.0109   0.5051   0.0000
  15 F_b :5g2-   0.0000   0.0000  -1.1568
  16 F_b :6h4-  -0.1435   0.0202   0.0000
  17 F_b :6h2-   0.0000   0.0000  -0.1159
  18 F_b :6h4-   0.8104  -0.1184   0.0000
  19 F_b :6h2-   0.0000   0.0000   0.7173

  Total CPU  time used in SIRIUS :  27.67 seconds
  Total wall time used in SIRIUS :  27.68 seconds

 
     Date and time (Linux)  : Wed Jan 11 14:15:20 2023
     Host name              : cn040                                   


                     .---------------------------------------.
                     | End of Wave Function Section (SIRIUS) |
                     `---------------------------------------'



                 .------------------------------------------------.
                 | Starting in Dynamic Property Section (RESPONS) |
                 `------------------------------------------------'


 ----------------------------------------------------------------------------------------
  RESPONSE  -  an MCSCF, MC-srDFT, DFT, SOPPA and SOPPA-srDFT response property program
 ----------------------------------------------------------------------------------------


 -------- OUTPUT FROM RESPONSE INPUT PROCESSING --------




 Linear Response calculation
 ---------------------------

 Print level                                    : IPRLR  =   2
 Maximum number of iterations                   : MAXITL =  60
 Threshold for relative convergence             : THCLR  = 1.000D-03
 Maximum iterations in optimal orbital algorithm: MAXITO =   5

  9 B-frequencies  0.000000D+00  1.101744D-02  2.203487D-02  3.305231D-02  4.406975D-02
  5.508719D-02  6.610463D-02  7.712206D-02  8.813950D-02

    1 second order properties calculated with symmetry no.    2 and labels:

          XDIPLEN 

    1 second order properties calculated with symmetry no.    3 and labels:

          YDIPLEN 

    1 second order properties calculated with symmetry no.    5 and labels:

          ZDIPLEN 


   SCF energy         :     -198.772997216917474
 -- inactive part     :     -229.130996737186138
 -- nuclear repulsion :       30.357999520268653


                     ***************************************
                     *** RHF response calculation (TDHF) ***
                     ***************************************

 ----------------------------------------------------------------
 ----- Linear response calculation
 ----- Symmetry of excitation/property operator(s)    2  ( B3u)
 ----------------------------------------------------------------

 Number of excitations of this symmetry            0
 Number of response properties of this symmetry    1
 Number of C6/C8 properties of this symmetry       0


 Perturbation symmetry.     KSYMOP:           2
 Perturbation spin symmetry.TRPLET:           F
 Orbital variables.         KZWOPT:         275
 Configuration variables.   KZCONF:           0
 Total number of variables. KZVAR :         275


 RSPLR -- linear response calculation for symmetry 2  ( B3u)
 RSPLR -- operator label : XDIPLEN 
 RSPLR -- operator spin  :   0
 RSPLR -- frequencies    :     0.000000  0.011017  0.022035  0.033052  0.044070
                               0.055087  0.066105  0.077122  0.088139



 ---  SOLVING SETS OF LINEAR EQUATIONS FOR LINEAR RESPONSE PROPERTIES ---

 Operator symmetry = 2  ( B3u); triplet =   F

RSPORT:    2 out of    9 new trial vectors linear dependent

 ** RSPCTL MICROITERATION NUMBER    1

       No.  Residual tot.,    conf., and orb.    Bnorm      Frequency 
      ----------------------------------------------------------------
         1    6.76357D-01  0.00D+00  6.76D-01  1.52D+00    0.00000D+00
         2    6.76436D-01  0.00D+00  6.76D-01  1.52D+00    1.10174D-02
         3    6.76673D-01  0.00D+00  6.77D-01  1.52D+00    2.20349D-02
         4    6.77069D-01  0.00D+00  6.77D-01  1.52D+00    3.30523D-02
         5    6.77624D-01  0.00D+00  6.78D-01  1.53D+00    4.40697D-02
         6    6.78341D-01  0.00D+00  6.78D-01  1.53D+00    5.50872D-02
         7    6.79222D-01  0.00D+00  6.79D-01  1.53D+00    6.61046D-02
         8    6.80269D-01  0.00D+00  6.80D-01  1.54D+00    7.71221D-02
         9    6.81487D-01  0.00D+00  6.81D-01  1.54D+00    8.81395D-02

 ** RSPCTL MICROITERATION NUMBER    2

       No.  Residual tot.,    conf., and orb.    Bnorm      Frequency 
      ----------------------------------------------------------------
         1    6.96665D-02  0.00D+00  6.97D-02  1.56D+00    0.00000D+00
         2    6.96943D-02  0.00D+00  6.97D-02  1.56D+00    1.10174D-02
         3    6.97790D-02  0.00D+00  6.98D-02  1.56D+00    2.20349D-02
         4    6.99239D-02  0.00D+00  6.99D-02  1.56D+00    3.30523D-02
         5    7.01353D-02  0.00D+00  7.01D-02  1.57D+00    4.40697D-02
         6    7.04232D-02  0.00D+00  7.04D-02  1.57D+00    5.50872D-02
         7    7.08035D-02  0.00D+00  7.08D-02  1.58D+00    6.61046D-02
         8    7.13010D-02  0.00D+00  7.13D-02  1.58D+00    7.71221D-02
         9    7.19557D-02  0.00D+00  7.20D-02  1.59D+00    8.81395D-02

 ** RSPCTL MICROITERATION NUMBER    3

       No.  Residual tot.,    conf., and orb.    Bnorm      Frequency 
      ----------------------------------------------------------------
         1    3.41210D-03  0.00D+00  3.41D-03  1.56D+00    0.00000D+00
         2    3.41464D-03  0.00D+00  3.41D-03  1.56D+00    1.10174D-02
         3    3.42232D-03  0.00D+00  3.42D-03  1.56D+00    2.20349D-02
         4    3.43531D-03  0.00D+00  3.44D-03  1.56D+00    3.30523D-02
         5    3.45397D-03  0.00D+00  3.45D-03  1.57D+00    4.40697D-02
         6    3.47884D-03  0.00D+00  3.48D-03  1.57D+00    5.50872D-02
         7    3.51087D-03  0.00D+00  3.51D-03  1.58D+00    6.61046D-02
         8    3.55161D-03  0.00D+00  3.55D-03  1.58D+00    7.71221D-02
         9    3.60374D-03  0.00D+00  3.60D-03  1.59D+00    8.81395D-02

 ** RSPCTL MICROITERATION NUMBER    4

       No.  Residual tot.,    conf., and orb.    Bnorm      Frequency 
      ----------------------------------------------------------------
         1    2.42559D-04  0.00D+00  2.43D-04  1.56D+00    0.00000D+00
         2    2.42836D-04  0.00D+00  2.43D-04  1.56D+00    1.10174D-02
         3    2.43669D-04  0.00D+00  2.44D-04  1.56D+00    2.20349D-02
         4    2.45069D-04  0.00D+00  2.45D-04  1.56D+00    3.30523D-02
         5    2.47056D-04  0.00D+00  2.47D-04  1.57D+00    4.40697D-02
         6    2.49661D-04  0.00D+00  2.50D-04  1.57D+00    5.50872D-02
         7    2.52941D-04  0.00D+00  2.53D-04  1.58D+00    6.61046D-02
         8    2.56991D-04  0.00D+00  2.57D-04  1.58D+00    7.71221D-02
         9    2.61980D-04  0.00D+00  2.62D-04  1.59D+00    8.81395D-02

 *** THE REQUESTED    9 SOLUTION VECTORS CONVERGED

 Convergence of RSP solution vectors, threshold = 1.00D-03
 ---------------------------------------------------------------
 (dimension of paired reduced space:   68)
 RSP solution vector no.    1; norm of residual   1.55D-04
 RSP solution vector no.    2; norm of residual   1.56D-04
 RSP solution vector no.    3; norm of residual   1.56D-04
 RSP solution vector no.    4; norm of residual   1.57D-04
 RSP solution vector no.    5; norm of residual   1.58D-04
 RSP solution vector no.    6; norm of residual   1.59D-04
 RSP solution vector no.    7; norm of residual   1.60D-04
 RSP solution vector no.    8; norm of residual   1.62D-04
 RSP solution vector no.    9; norm of residual   1.65D-04

 *** RSPCTL MICROITERATIONS CONVERGED


           Final output of second order properties from linear response
           ------------------------------------------------------------


@ Spin symmetry of operators: singlet

 Note that minus the linear response function: - << A; B >>(omega) is printed.
 The results are of quadratic accuracy using Sellers formula.

@ FREQUENCY INDEPENDENT SECOND ORDER PROPERTIES

@ -<< XDIPLEN  ; XDIPLEN  >> =  5.552972863401E+00

@ FREQUENCY DEPENDENT SECOND ORDER PROPERTIES WITH FREQUENCY :

@    a.u.:  1.1017437D-02
@    cm-1:  2.4180480D+03
@    eV  :  2.9979972D-01
@  kJ/mol:  2.8926278D+01
@    nm  :  4.1355672D+03

@ -<< XDIPLEN  ; XDIPLEN  >> =  5.553694805696E+00

@ FREQUENCY DEPENDENT SECOND ORDER PROPERTIES WITH FREQUENCY :

@    a.u.:  2.2034875D-02
@    cm-1:  4.8360960D+03
@    eV  :  5.9959945D-01
@  kJ/mol:  5.7852555D+01
@    nm  :  2.0677836D+03

@ -<< XDIPLEN  ; XDIPLEN  >> =  5.555863042046E+00

@ FREQUENCY DEPENDENT SECOND ORDER PROPERTIES WITH FREQUENCY :

@    a.u.:  3.3052313D-02
@    cm-1:  7.2541440D+03
@    eV  :  8.9939917D-01
@  kJ/mol:  8.6778833D+01
@    nm  :  1.3785224D+03

@ -<< XDIPLEN  ; XDIPLEN  >> =  5.559484898650E+00

@ FREQUENCY DEPENDENT SECOND ORDER PROPERTIES WITH FREQUENCY :

@    a.u.:  4.4069750D-02
@    cm-1:  9.6721920D+03
@    eV  :  1.1991989D+00
@  kJ/mol:  1.1570511D+02
@    nm  :  1.0338918D+03

@ -<< XDIPLEN  ; XDIPLEN  >> =  5.564572931748E+00

@ FREQUENCY DEPENDENT SECOND ORDER PROPERTIES WITH FREQUENCY :

@    a.u.:  5.5087187D-02
@    cm-1:  1.2090240D+04
@    eV  :  1.4989986D+00
@  kJ/mol:  1.4463139D+02
@    nm  :  8.2711344D+02

@ -<< XDIPLEN  ; XDIPLEN  >> =  5.571145523695E+00

@ FREQUENCY DEPENDENT SECOND ORDER PROPERTIES WITH FREQUENCY :

@    a.u.:  6.6104625D-02
@    cm-1:  1.4508288D+04
@    eV  :  1.7987983D+00
@  kJ/mol:  1.7355767D+02
@    nm  :  6.8926120D+02

@ -<< XDIPLEN  ; XDIPLEN  >> =  5.579227903937E+00

@ FREQUENCY DEPENDENT SECOND ORDER PROPERTIES WITH FREQUENCY :

@    a.u.:  7.7122062D-02
@    cm-1:  1.6926336D+04
@    eV  :  2.0985981D+00
@  kJ/mol:  2.0248394D+02
@    nm  :  5.9079531D+02

@ -<< XDIPLEN  ; XDIPLEN  >> =  5.588853876752E+00

@ FREQUENCY DEPENDENT SECOND ORDER PROPERTIES WITH FREQUENCY :

@    a.u.:  8.8139500D-02
@    cm-1:  1.9344384D+04
@    eV  :  2.3983978D+00
@  kJ/mol:  2.3141022D+02
@    nm  :  5.1694590D+02

@ -<< XDIPLEN  ; XDIPLEN  >> =  5.600068827308E+00


 Time used in linear response calculation is     21.45 CPU seconds for symmetry 2
 ----------------------------------------------------------------
 ----- Linear response calculation
 ----- Symmetry of excitation/property operator(s)    3  ( B2u)
 ----------------------------------------------------------------

 Number of excitations of this symmetry            0
 Number of response properties of this symmetry    1
 Number of C6/C8 properties of this symmetry       0


 Perturbation symmetry.     KSYMOP:           3
 Perturbation spin symmetry.TRPLET:           F
 Orbital variables.         KZWOPT:         275
 Configuration variables.   KZCONF:           0
 Total number of variables. KZVAR :         275


 RSPLR -- linear response calculation for symmetry 3  ( B2u)
 RSPLR -- operator label : YDIPLEN 
 RSPLR -- operator spin  :   0
 RSPLR -- frequencies    :     0.000000  0.011017  0.022035  0.033052  0.044070
                               0.055087  0.066105  0.077122  0.088139



 ---  SOLVING SETS OF LINEAR EQUATIONS FOR LINEAR RESPONSE PROPERTIES ---

 Operator symmetry = 3  ( B2u); triplet =   F

RSPORT:    2 out of    9 new trial vectors linear dependent

 ** RSPCTL MICROITERATION NUMBER    1

       No.  Residual tot.,    conf., and orb.    Bnorm      Frequency 
      ----------------------------------------------------------------
         1    6.50870D-01  0.00D+00  6.51D-01  1.52D+00    0.00000D+00
         2    6.50949D-01  0.00D+00  6.51D-01  1.52D+00    1.10174D-02
         3    6.51186D-01  0.00D+00  6.51D-01  1.53D+00    2.20349D-02
         4    6.51581D-01  0.00D+00  6.52D-01  1.53D+00    3.30523D-02
         5    6.52137D-01  0.00D+00  6.52D-01  1.53D+00    4.40697D-02
         6    6.52853D-01  0.00D+00  6.53D-01  1.53D+00    5.50872D-02
         7    6.53733D-01  0.00D+00  6.54D-01  1.54D+00    6.61046D-02
         8    6.54778D-01  0.00D+00  6.55D-01  1.54D+00    7.71221D-02
         9    6.55992D-01  0.00D+00  6.56D-01  1.55D+00    8.81395D-02

 ** RSPCTL MICROITERATION NUMBER    2

       No.  Residual tot.,    conf., and orb.    Bnorm      Frequency 
      ----------------------------------------------------------------
         1    5.55815D-02  0.00D+00  5.56D-02  1.56D+00    0.00000D+00
         2    5.56093D-02  0.00D+00  5.56D-02  1.56D+00    1.10174D-02
         3    5.56943D-02  0.00D+00  5.57D-02  1.56D+00    2.20349D-02
         4    5.58408D-02  0.00D+00  5.58D-02  1.56D+00    3.30523D-02
         5    5.60571D-02  0.00D+00  5.61D-02  1.57D+00    4.40697D-02
         6    5.63564D-02  0.00D+00  5.64D-02  1.57D+00    5.50872D-02
         7    5.67599D-02  0.00D+00  5.68D-02  1.58D+00    6.61046D-02
         8    5.73006D-02  0.00D+00  5.73D-02  1.58D+00    7.71221D-02
         9    5.80328D-02  0.00D+00  5.80D-02  1.59D+00    8.81395D-02

 ** RSPCTL MICROITERATION NUMBER    3

       No.  Residual tot.,    conf., and orb.    Bnorm      Frequency 
      ----------------------------------------------------------------
         1    2.43500D-03  0.00D+00  2.43D-03  1.56D+00    0.00000D+00
         2    2.43819D-03  0.00D+00  2.44D-03  1.56D+00    1.10174D-02
         3    2.44791D-03  0.00D+00  2.45D-03  1.56D+00    2.20349D-02
         4    2.46461D-03  0.00D+00  2.46D-03  1.56D+00    3.30523D-02
         5    2.48912D-03  0.00D+00  2.49D-03  1.57D+00    4.40697D-02
         6    2.52280D-03  0.00D+00  2.52D-03  1.57D+00    5.50872D-02
         7    2.56787D-03  0.00D+00  2.57D-03  1.58D+00    6.61046D-02
         8    2.62792D-03  0.00D+00  2.63D-03  1.58D+00    7.71221D-02
         9    2.70890D-03  0.00D+00  2.71D-03  1.59D+00    8.81395D-02

 ** RSPCTL MICROITERATION NUMBER    4

       No.  Residual tot.,    conf., and orb.    Bnorm      Frequency 
      ----------------------------------------------------------------
         1    1.47740D-04  0.00D+00  1.48D-04  1.56D+00    0.00000D+00
         2    1.47994D-04  0.00D+00  1.48D-04  1.56D+00    1.10174D-02
         3    1.48768D-04  0.00D+00  1.49D-04  1.56D+00    2.20349D-02
         4    1.50091D-04  0.00D+00  1.50D-04  1.56D+00    3.30523D-02
         5    1.52020D-04  0.00D+00  1.52D-04  1.57D+00    4.40697D-02
         6    1.54650D-04  0.00D+00  1.55D-04  1.57D+00    5.50872D-02
         7    1.58134D-04  0.00D+00  1.58D-04  1.58D+00    6.61046D-02
         8    1.62719D-04  0.00D+00  1.63D-04  1.58D+00    7.71221D-02
         9    1.68816D-04  0.00D+00  1.69D-04  1.59D+00    8.81395D-02

 *** THE REQUESTED    9 SOLUTION VECTORS CONVERGED

 Convergence of RSP solution vectors, threshold = 1.00D-03
 ---------------------------------------------------------------
 (dimension of paired reduced space:   68)
 RSP solution vector no.    1; norm of residual   9.47D-05
 RSP solution vector no.    2; norm of residual   9.48D-05
 RSP solution vector no.    3; norm of residual   9.52D-05
 RSP solution vector no.    4; norm of residual   9.59D-05
 RSP solution vector no.    5; norm of residual   9.70D-05
 RSP solution vector no.    6; norm of residual   9.84D-05
 RSP solution vector no.    7; norm of residual   1.00D-04
 RSP solution vector no.    8; norm of residual   1.03D-04
 RSP solution vector no.    9; norm of residual   1.06D-04

 *** RSPCTL MICROITERATIONS CONVERGED


           Final output of second order properties from linear response
           ------------------------------------------------------------


@ Spin symmetry of operators: singlet

 Note that minus the linear response function: - << A; B >>(omega) is printed.
 The results are of quadratic accuracy using Sellers formula.

@ FREQUENCY INDEPENDENT SECOND ORDER PROPERTIES

@ -<< YDIPLEN  ; YDIPLEN  >> =  5.552972865896E+00

@ FREQUENCY DEPENDENT SECOND ORDER PROPERTIES WITH FREQUENCY :

@    a.u.:  1.1017437D-02
@    cm-1:  2.4180480D+03
@    eV  :  2.9979972D-01
@  kJ/mol:  2.8926278D+01
@    nm  :  4.1355672D+03

@ -<< YDIPLEN  ; YDIPLEN  >> =  5.553694808193E+00

@ FREQUENCY DEPENDENT SECOND ORDER PROPERTIES WITH FREQUENCY :

@    a.u.:  2.2034875D-02
@    cm-1:  4.8360960D+03
@    eV  :  5.9959945D-01
@  kJ/mol:  5.7852555D+01
@    nm  :  2.0677836D+03

@ -<< YDIPLEN  ; YDIPLEN  >> =  5.555863044549E+00

@ FREQUENCY DEPENDENT SECOND ORDER PROPERTIES WITH FREQUENCY :

@    a.u.:  3.3052313D-02
@    cm-1:  7.2541440D+03
@    eV  :  8.9939917D-01
@  kJ/mol:  8.6778833D+01
@    nm  :  1.3785224D+03

@ -<< YDIPLEN  ; YDIPLEN  >> =  5.559484901164E+00

@ FREQUENCY DEPENDENT SECOND ORDER PROPERTIES WITH FREQUENCY :

@    a.u.:  4.4069750D-02
@    cm-1:  9.6721920D+03
@    eV  :  1.1991989D+00
@  kJ/mol:  1.1570511D+02
@    nm  :  1.0338918D+03

@ -<< YDIPLEN  ; YDIPLEN  >> =  5.564572934275E+00

@ FREQUENCY DEPENDENT SECOND ORDER PROPERTIES WITH FREQUENCY :

@    a.u.:  5.5087187D-02
@    cm-1:  1.2090240D+04
@    eV  :  1.4989986D+00
@  kJ/mol:  1.4463139D+02
@    nm  :  8.2711344D+02

@ -<< YDIPLEN  ; YDIPLEN  >> =  5.571145526237E+00

@ FREQUENCY DEPENDENT SECOND ORDER PROPERTIES WITH FREQUENCY :

@    a.u.:  6.6104625D-02
@    cm-1:  1.4508288D+04
@    eV  :  1.7987983D+00
@  kJ/mol:  1.7355767D+02
@    nm  :  6.8926120D+02

@ -<< YDIPLEN  ; YDIPLEN  >> =  5.579227906494E+00

@ FREQUENCY DEPENDENT SECOND ORDER PROPERTIES WITH FREQUENCY :

@    a.u.:  7.7122062D-02
@    cm-1:  1.6926336D+04
@    eV  :  2.0985981D+00
@  kJ/mol:  2.0248394D+02
@    nm  :  5.9079531D+02

@ -<< YDIPLEN  ; YDIPLEN  >> =  5.588853879321E+00

@ FREQUENCY DEPENDENT SECOND ORDER PROPERTIES WITH FREQUENCY :

@    a.u.:  8.8139500D-02
@    cm-1:  1.9344384D+04
@    eV  :  2.3983978D+00
@  kJ/mol:  2.3141022D+02
@    nm  :  5.1694590D+02

@ -<< YDIPLEN  ; YDIPLEN  >> =  5.600068829881E+00


 Time used in linear response calculation is     21.50 CPU seconds for symmetry 3
 ----------------------------------------------------------------
 ----- Linear response calculation
 ----- Symmetry of excitation/property operator(s)    5  ( B1u)
 ----------------------------------------------------------------

 Number of excitations of this symmetry            0
 Number of response properties of this symmetry    1
 Number of C6/C8 properties of this symmetry       0


 Perturbation symmetry.     KSYMOP:           5
 Perturbation spin symmetry.TRPLET:           F
 Orbital variables.         KZWOPT:         338
 Configuration variables.   KZCONF:           0
 Total number of variables. KZVAR :         338


 RSPLR -- linear response calculation for symmetry 5  ( B1u)
 RSPLR -- operator label : ZDIPLEN 
 RSPLR -- operator spin  :   0
 RSPLR -- frequencies    :     0.000000  0.011017  0.022035  0.033052  0.044070
                               0.055087  0.066105  0.077122  0.088139



 ---  SOLVING SETS OF LINEAR EQUATIONS FOR LINEAR RESPONSE PROPERTIES ---

 Operator symmetry = 5  ( B1u); triplet =   F

RSPORT:    2 out of    9 new trial vectors linear dependent

 ** RSPCTL MICROITERATION NUMBER    1

       No.  Residual tot.,    conf., and orb.    Bnorm      Frequency 
      ----------------------------------------------------------------
         1    3.69766D+00  0.00D+00  3.70D+00  2.40D+00    0.00000D+00
         2    3.69894D+00  0.00D+00  3.70D+00  2.41D+00    1.10174D-02
         3    3.70281D+00  0.00D+00  3.70D+00  2.41D+00    2.20349D-02
         4    3.70926D+00  0.00D+00  3.71D+00  2.42D+00    3.30523D-02
         5    3.71834D+00  0.00D+00  3.72D+00  2.43D+00    4.40697D-02
         6    3.73008D+00  0.00D+00  3.73D+00  2.44D+00    5.50872D-02
         7    3.74452D+00  0.00D+00  3.74D+00  2.46D+00    6.61046D-02
         8    3.76175D+00  0.00D+00  3.76D+00  2.48D+00    7.71221D-02
         9    3.78182D+00  0.00D+00  3.78D+00  2.50D+00    8.81395D-02

 ** RSPCTL MICROITERATION NUMBER    2

       No.  Residual tot.,    conf., and orb.    Bnorm      Frequency 
      ----------------------------------------------------------------
         1    1.04267D+00  0.00D+00  1.04D+00  3.36D+00    0.00000D+00
         2    1.04328D+00  0.00D+00  1.04D+00  3.36D+00    1.10174D-02
         3    1.04512D+00  0.00D+00  1.05D+00  3.37D+00    2.20349D-02
         4    1.04819D+00  0.00D+00  1.05D+00  3.38D+00    3.30523D-02
         5    1.05253D+00  0.00D+00  1.05D+00  3.40D+00    4.40697D-02
         6    1.05815D+00  0.00D+00  1.06D+00  3.43D+00    5.50872D-02
         7    1.06510D+00  0.00D+00  1.07D+00  3.46D+00    6.61046D-02
         8    1.07342D+00  0.00D+00  1.07D+00  3.49D+00    7.71221D-02
         9    1.08318D+00  0.00D+00  1.08D+00  3.53D+00    8.81395D-02

 ** RSPCTL MICROITERATION NUMBER    3

       No.  Residual tot.,    conf., and orb.    Bnorm      Frequency 
      ----------------------------------------------------------------
         1    1.42829D-01  0.00D+00  1.43D-01  3.42D+00    0.00000D+00
         2    1.42932D-01  0.00D+00  1.43D-01  3.42D+00    1.10174D-02
         3    1.43242D-01  0.00D+00  1.43D-01  3.43D+00    2.20349D-02
         4    1.43760D-01  0.00D+00  1.44D-01  3.45D+00    3.30523D-02
         5    1.44491D-01  0.00D+00  1.44D-01  3.47D+00    4.40697D-02
         6    1.45440D-01  0.00D+00  1.45D-01  3.49D+00    5.50872D-02
         7    1.46614D-01  0.00D+00  1.47D-01  3.52D+00    6.61046D-02
         8    1.48021D-01  0.00D+00  1.48D-01  3.56D+00    7.71221D-02
         9    1.49672D-01  0.00D+00  1.50D-01  3.60D+00    8.81395D-02

 ** RSPCTL MICROITERATION NUMBER    4

       No.  Residual tot.,    conf., and orb.    Bnorm      Frequency 
      ----------------------------------------------------------------
         1    1.01748D-02  0.00D+00  1.02D-02  3.42D+00    0.00000D+00
         2    1.01828D-02  0.00D+00  1.02D-02  3.42D+00    1.10174D-02
         3    1.02069D-02  0.00D+00  1.02D-02  3.43D+00    2.20349D-02
         4    1.02472D-02  0.00D+00  1.02D-02  3.45D+00    3.30523D-02
         5    1.03040D-02  0.00D+00  1.03D-02  3.47D+00    4.40697D-02
         6    1.03777D-02  0.00D+00  1.04D-02  3.49D+00    5.50872D-02
         7    1.04689D-02  0.00D+00  1.05D-02  3.52D+00    6.61046D-02
         8    1.05782D-02  0.00D+00  1.06D-02  3.56D+00    7.71221D-02
         9    1.07065D-02  0.00D+00  1.07D-02  3.60D+00    8.81395D-02
RSPORT:    1 out of    9 new trial vectors linear dependent

 ** RSPCTL MICROITERATION NUMBER    5

       No.  Residual tot.,    conf., and orb.    Bnorm      Frequency 
      ----------------------------------------------------------------
         1    1.06252D-03  0.00D+00  1.06D-03  3.42D+00    0.00000D+00
         2    1.06356D-03  0.00D+00  1.06D-03  3.42D+00    1.10174D-02
         3    1.06670D-03  0.00D+00  1.07D-03  3.43D+00    2.20349D-02
         4    1.07195D-03  0.00D+00  1.07D-03  3.45D+00    3.30523D-02
         5    1.07936D-03  0.00D+00  1.08D-03  3.47D+00    4.40697D-02
         6    1.08898D-03  0.00D+00  1.09D-03  3.49D+00    5.50872D-02
         7    1.10090D-03  0.00D+00  1.10D-03  3.52D+00    6.61046D-02
         8    1.11520D-03  0.00D+00  1.12D-03  3.56D+00    7.71221D-02
         9    1.13201D-03  0.00D+00  1.13D-03  3.60D+00    8.81395D-02

 *** THE REQUESTED    9 SOLUTION VECTORS CONVERGED

 Convergence of RSP solution vectors, threshold = 1.00D-03
 ---------------------------------------------------------------
 (dimension of paired reduced space:   84)
 RSP solution vector no.    1; norm of residual   3.11D-04
 RSP solution vector no.    2; norm of residual   3.11D-04
 RSP solution vector no.    3; norm of residual   3.11D-04
 RSP solution vector no.    4; norm of residual   3.11D-04
 RSP solution vector no.    5; norm of residual   3.11D-04
 RSP solution vector no.    6; norm of residual   3.12D-04
 RSP solution vector no.    7; norm of residual   3.13D-04
 RSP solution vector no.    8; norm of residual   3.13D-04
 RSP solution vector no.    9; norm of residual   3.14D-04

 *** RSPCTL MICROITERATIONS CONVERGED


           Final output of second order properties from linear response
           ------------------------------------------------------------


@ Spin symmetry of operators: singlet

 Note that minus the linear response function: - << A; B >>(omega) is printed.
 The results are of quadratic accuracy using Sellers formula.

@ FREQUENCY INDEPENDENT SECOND ORDER PROPERTIES

@ -<< ZDIPLEN  ; ZDIPLEN  >> =  1.462755535980E+01

@ FREQUENCY DEPENDENT SECOND ORDER PROPERTIES WITH FREQUENCY :

@    a.u.:  1.1017437D-02
@    cm-1:  2.4180480D+03
@    eV  :  2.9979972D-01
@  kJ/mol:  2.8926278D+01
@    nm  :  4.1355672D+03

@ -<< ZDIPLEN  ; ZDIPLEN  >> =  1.463364596771E+01

@ FREQUENCY DEPENDENT SECOND ORDER PROPERTIES WITH FREQUENCY :

@    a.u.:  2.2034875D-02
@    cm-1:  4.8360960D+03
@    eV  :  5.9959945D-01
@  kJ/mol:  5.7852555D+01
@    nm  :  2.0677836D+03

@ -<< ZDIPLEN  ; ZDIPLEN  >> =  1.465195583742E+01

@ FREQUENCY DEPENDENT SECOND ORDER PROPERTIES WITH FREQUENCY :

@    a.u.:  3.3052313D-02
@    cm-1:  7.2541440D+03
@    eV  :  8.9939917D-01
@  kJ/mol:  8.6778833D+01
@    nm  :  1.3785224D+03

@ -<< ZDIPLEN  ; ZDIPLEN  >> =  1.468259972827E+01

@ FREQUENCY DEPENDENT SECOND ORDER PROPERTIES WITH FREQUENCY :

@    a.u.:  4.4069750D-02
@    cm-1:  9.6721920D+03
@    eV  :  1.1991989D+00
@  kJ/mol:  1.1570511D+02
@    nm  :  1.0338918D+03

@ -<< ZDIPLEN  ; ZDIPLEN  >> =  1.472577099658E+01

@ FREQUENCY DEPENDENT SECOND ORDER PROPERTIES WITH FREQUENCY :

@    a.u.:  5.5087187D-02
@    cm-1:  1.2090240D+04
@    eV  :  1.4989986D+00
@  kJ/mol:  1.4463139D+02
@    nm  :  8.2711344D+02

@ -<< ZDIPLEN  ; ZDIPLEN  >> =  1.478174479999E+01

@ FREQUENCY DEPENDENT SECOND ORDER PROPERTIES WITH FREQUENCY :

@    a.u.:  6.6104625D-02
@    cm-1:  1.4508288D+04
@    eV  :  1.7987983D+00
@  kJ/mol:  1.7355767D+02
@    nm  :  6.8926120D+02

@ -<< ZDIPLEN  ; ZDIPLEN  >> =  1.485088272352E+01

@ FREQUENCY DEPENDENT SECOND ORDER PROPERTIES WITH FREQUENCY :

@    a.u.:  7.7122062D-02
@    cm-1:  1.6926336D+04
@    eV  :  2.0985981D+00
@  kJ/mol:  2.0248394D+02
@    nm  :  5.9079531D+02

@ -<< ZDIPLEN  ; ZDIPLEN  >> =  1.493363897593E+01

@ FREQUENCY DEPENDENT SECOND ORDER PROPERTIES WITH FREQUENCY :

@    a.u.:  8.8139500D-02
@    cm-1:  1.9344384D+04
@    eV  :  2.3983978D+00
@  kJ/mol:  2.3141022D+02
@    nm  :  5.1694590D+02

@ -<< ZDIPLEN  ; ZDIPLEN  >> =  1.503056836025E+01


 Time used in linear response calculation is     26.78 CPU seconds for symmetry 5

  Total CPU  time used in RESPONSE:  1 minute  10 seconds
  Total wall time used in RESPONSE:  1 minute  10 seconds


                   .-------------------------------------------.
                   | End of Dynamic Property Section (RESPONS) |
                   `-------------------------------------------'



 PLTORB knows S,P,D,F,G shells. The basis set contains orbital(s) with higher angular momentum,
 and the writing of MOLPLT file is thus abandoned.

  Total CPU  time used in DALTON:  1 minute  38 seconds
  Total wall time used in DALTON:  1 minute  38 seconds

 
     Date and time (Linux)  : Wed Jan 11 14:16:30 2023
     Host name              : cn040                                   
