

     ************************************************************************
     *************** Dalton - An Electronic Structure Program ***************
     ************************************************************************

    This is output from DALTON release Dalton2020.0 (2020)
         ( Web site: http://daltonprogram.org )

   ----------------------------------------------------------------------------

    NOTE:
     
    Dalton is an experimental code for the evaluation of molecular
    properties using (MC)SCF, DFT, CI, and CC wave functions.
    The authors accept no responsibility for the performance of
    the code or for the correctness of the results.
     
    The code (in whole or part) is provided under a licence and
    is not to be reproduced for further distribution without
    the written permission of the authors or their representatives.
     
    See the home page "http://daltonprogram.org" for further information.
     
    If results obtained with this code are published,
    the appropriate citations would be both of:
     
       K. Aidas, C. Angeli, K. L. Bak, V. Bakken, R. Bast,
       L. Boman, O. Christiansen, R. Cimiraglia, S. Coriani,
       P. Dahle, E. K. Dalskov, U. Ekstroem,
       T. Enevoldsen, J. J. Eriksen, P. Ettenhuber, B. Fernandez,
       L. Ferrighi, H. Fliegl, L. Frediani, K. Hald, A. Halkier,
       C. Haettig, H. Heiberg, T. Helgaker, A. C. Hennum,
       H. Hettema, E. Hjertenaes, S. Hoest, I.-M. Hoeyvik,
       M. F. Iozzi, B. Jansik, H. J. Aa. Jensen, D. Jonsson,
       P. Joergensen, J. Kauczor, S. Kirpekar,
       T. Kjaergaard, W. Klopper, S. Knecht, R. Kobayashi, H. Koch,
       J. Kongsted, A. Krapp, K. Kristensen, A. Ligabue,
       O. B. Lutnaes, J. I. Melo, K. V. Mikkelsen, R. H. Myhre,
       C. Neiss, C. B. Nielsen, P. Norman, J. Olsen,
       J. M. H. Olsen, A. Osted, M. J. Packer, F. Pawlowski,
       T. B. Pedersen, P. F. Provasi, S. Reine, Z. Rinkevicius,
       T. A. Ruden, K. Ruud, V. Rybkin, P. Salek, C. C. M. Samson,
       A. Sanchez de Meras, T. Saue, S. P. A. Sauer,
       B. Schimmelpfennig, K. Sneskov, A. H. Steindal,
       K. O. Sylvester-Hvid, P. R. Taylor, A. M. Teale,
       E. I. Tellgren, D. P. Tew, A. J. Thorvaldsen, L. Thoegersen,
       O. Vahtras, M. A. Watson, D. J. D. Wilson, M. Ziolkowski
       and H. Agren,
       "The Dalton quantum chemistry program system",
       WIREs Comput. Mol. Sci. 2014, 4:269–284 (doi: 10.1002/wcms.1172)
     
    and
     
       Dalton, a molecular electronic structure program,
       Release Dalton2020.0 (2020), see http://daltonprogram.org
   ----------------------------------------------------------------------------

    Authors in alphabetical order (Major contribution(s) in parenthesis):

  Kestutis Aidas,           Vilnius University,           Lithuania   (QM/MM)
  Celestino Angeli,         University of Ferrara,        Italy       (NEVPT2)
  Keld L. Bak,              UNI-C,                        Denmark     (AOSOPPA, non-adiabatic coupling, magnetic properties)
  Vebjoern Bakken,          University of Oslo,           Norway      (DALTON; geometry optimizer, symmetry detection)
  Radovan Bast,             UiT The Arctic U. of Norway,  Norway      (DALTON installation and execution frameworks)
  Pablo Baudin,             University of Valencia,       Spain       (Cholesky excitation energies)
  Linus Boman,              NTNU,                         Norway      (Cholesky decomposition and subsystems)
  Bruno N. Cabral Tenorio,  Technical Univ. of Denmark,   Denmark     (Lanczos-based CC methods)
  Ove Christiansen,         Aarhus University,            Denmark     (CC module)
  Renzo Cimiraglia,         University of Ferrara,        Italy       (NEVPT2)
  Sonia Coriani,            Technical Univ. of Denmark,   Denmark     (CC and RESPONS modules)
  Janusz Cukras,            University of Warsaw,         Poland      (MChD in RESPONS)
  Paal Dahle,               University of Oslo,           Norway      (Parallelization)
  Erik K. Dalskov,          UNI-C,                        Denmark     (SOPPA)
  Thomas Enevoldsen,        Univ. of Southern Denmark,    Denmark     (SOPPA)
  Janus J. Eriksen,         Aarhus University,            Denmark     (Polarizable embedding, TDA)
  Rasmus Faber,             Technical Univ. of Denmark,   Denmark     (Vib.avg. NMR w. SOPPA, parallel AO-SOPPA, CVS-CC and EOMCC)
  Tobias Fahleson,          KTH Stockholm,                Sweden      (Damped cubic response)
  Berta Fernandez,          U. of Santiago de Compostela, Spain       (Doublet spin, ESR in RESPONS)
  Lara Ferrighi,            Aarhus University,            Denmark     (PCM Cubic response)
  Heike Fliegl,             University of Oslo,           Norway      (CCSD(R12))
  Luca Frediani,            UiT The Arctic U. of Norway,  Norway      (PCM)
  Emmanuel Fromager,        Univ. Strasbourg,             France      (MC-srDFT)
  Bin Gao,                  UiT The Arctic U. of Norway,  Norway      (Gen1Int library)
  Andre S. P. Gomes,        CNRS/Universite de Lille,     France      (Frozen density embedding)
  Christof Haettig,         Ruhr-University Bochum,       Germany     (CC module)
  Kasper Hald,              Aarhus University,            Denmark     (CC module)
  Asger Halkier,            Aarhus University,            Denmark     (CC module)
  Frederik Beyer Hansen,    University of Copenhagen,     Denmark     (Parallel AO-SOPPA)
  Erik D. Hedegaard,        Univ. of Southern Denmark,    Denmark     (Polarizable embedding, QM/MM, and MC-srDFT)
  Hanne Heiberg,            University of Oslo,           Norway      (Geometry analysis, selected one-electron integrals)
  Trygve Helgaker,          University of Oslo,           Norway      (DALTON; ABACUS, ERI, DFT modules, London, and much more)
  Alf Christian Hennum,     University of Oslo,           Norway      (Parity violation)
  Hinne Hettema,            University of Auckland,       New Zealand (Quadratic response in RESPONS; SIRIUS supersymmetry)
  Eirik Hjertenaes,         NTNU,                         Norway      (Cholesky decomposition)
  Pi A. B. Haase,           University of Copenhagen,     Denmark     (Triplet AO-SOPPA)
  Maria Francesca Iozzi,    University of Oslo,           Norway      (RPA)
  Christoph Jacob           TU Braunschweig               Germany     (Frozen density embedding)
  Brano Jansik              Technical Univ. of Ostrava    Czech Rep.  (DFT cubic response)
  Hans Joergen Aa. Jensen,  Univ. of Southern Denmark,    Denmark     (DALTON; SIRIUS, RESPONS, ABACUS, MC-srDFT, and much more)
  Dan Jonsson,              UiT The Arctic U. of Norway,  Norway      (Cubic response in RESPONS module)
  Poul Joergensen,          Aarhus University,            Denmark     (RESPONS, ABACUS, and CC modules)
  Maciej Kaminski,          University of Warsaw,         Poland      (CPPh in RESPONS)
  Joanna Kauczor,           Linkoeping University,        Sweden      (Complex polarization propagator (CPP) module)
  Sheela Kirpekar,          Univ. of Southern Denmark,    Denmark     (Mass-velocity & Darwin integrals)
  Erik Kjellgren,           Univ. of Southern Denmark,    Denmark     (MC-srDFT)
  Wim Klopper,              KIT Karlsruhe,                Germany     (R12 code in CC, SIRIUS, and ABACUS modules)
  Stefan Knecht,            ETH Zurich,                   Switzerland (Parallel CI and MCSCF, MC-srDFT)
  Rika Kobayashi,           Australian National Univ.,    Australia   (DIIS in CC, London in MCSCF)
  Henrik Koch,              NTNU,                         Norway      (CC module, Cholesky decomposition)
  Jacob Kongsted,           Univ. of Southern Denmark,    Denmark     (Polarizable embedding, polarizable density embedding, QM/MM)
  Andrea Ligabue,           University of Modena,         Italy       (CTOCD, AOSOPPA)
  Nanna H. List             Univ. of Southern Denmark,    Denmark     (Polarizable embedding)
  Ola B. Lutnaes,           University of Oslo,           Norway      (DFT Hessian)
  Juan I. Melo,             University of Buenos Aires,   Argentina   (LRESC, Relativistic Effects on NMR Shieldings)
  Kurt V. Mikkelsen,        University of Copenhagen,     Denmark     (MC-SCRF and QM/MM)
  Rolf H. Myhre,            NTNU,                         Norway      (Subsystems and CC3)
  Christian Neiss,          Univ. Erlangen-Nuernberg,     Germany     (CCSD(R12))
  Christian B. Nielsen,     University of Copenhagen,     Denmark     (QM/MM)
  Patrick Norman,           KTH Stockholm,                Sweden      (Cubic response and complex frequency response in RESPONS)
  Jeppe Olsen,              Aarhus University,            Denmark     (SIRIUS CI/density modules)
  Jogvan Magnus H. Olsen,   Aarhus University,            Denmark     (Polarizable embedding and polarizable density embedding)
  Anders Osted,             Copenhagen University,        Denmark     (QM/MM)
  Martin J. Packer,         University of Sheffield,      UK          (SOPPA)
  Filip Pawlowski,          Kazimierz Wielki University,  Poland      (CC3)
  Morten N. Pedersen,       Univ. of Southern Denmark,    Denmark     (Polarizable embedding)
  Thomas B. Pedersen,       University of Oslo,           Norway      (Cholesky decomposition)
  Patricio F. Provasi,      University of Northeastern,   Argentina   (Analysis of coupling constants in localized orbitals)
  Peter Reinholdt,          Univ. of Southern Denmark,    Denmark     (Polarizable embedding and polarizable density embedding)
  Zilvinas Rinkevicius,     KTH Stockholm,                Sweden      (open-shell DFT, ESR)
  Elias Rudberg,            KTH Stockholm,                Sweden      (DFT grid and basis info)
  Torgeir A. Ruden,         University of Oslo,           Norway      (Numerical derivatives in ABACUS)
  Kenneth Ruud,             UiT The Arctic U. of Norway,  Norway      (DALTON; ABACUS magnetic properties and much more)
  Pawel Salek,              KTH Stockholm,                Sweden      (DALTON; DFT code)
  Claire C. M. Samson       University of Karlsruhe       Germany     (Boys localization, r12 integrals in ERI)
  Alfredo Sanchez de Meras, University of Valencia,       Spain       (CC module, Cholesky decomposition)
  Trond Saue,               Paul Sabatier University,     France      (direct Fock matrix construction)
  Stephan P. A. Sauer,      University of Copenhagen,     Denmark     (SOPPA(CCSD), SOPPA prop., AOSOPPA, vibrational g-factors)
  Bernd Schimmelpfennig,    Forschungszentrum Karlsruhe,  Germany     (AMFI module)
  Anna K. Schnack-Petersen, University of Copenhagen,     Denmark     (RPA(D) and HRPA(D) properties in AOSOPPA)
  Kristian Sneskov,         Aarhus University,            Denmark     (Polarizable embedding, QM/MM)
  Arnfinn H. Steindal,      UiT The Arctic U. of Norway,  Norway      (parallel QM/MM, polarizable embedding)
  Casper Steinmann,         Aalborg University,           Denmark     (QFIT, polarizable embedding)
  K. O. Sylvester-Hvid,     University of Copenhagen,     Denmark     (MC-SCRF)
  Peter R. Taylor,          VLSCI/Univ. of Melbourne,     Australia   (Symmetry handling ABACUS, integral transformation)
  Andrew M. Teale,          University of Nottingham,     England     (DFT-AC, DFT-D)
  David P. Tew,             University of Bristol,        England     (CCSD(R12))
  Julien Toulouse,          Sorbonne Univ.,               France      (MC-srDFT)
  Olav Vahtras,             KTH Stockholm,                Sweden      (Triplet response, spin-orbit, ESR, TDDFT, open-shell DFT)
  Lucas Visscher,           Vrije Universiteit Amsterdam, Netherlands (Frozen density embedding)
  David J. Wilson,          La Trobe University,          Australia   (DFT Hessian and DFT magnetizabilities)
  Hans Agren,               KTH Stockholm,                Sweden      (SIRIUS module, RESPONS, MC-SCRF solvation)
 --------------------------------------------------------------------------------

     Date and time (Linux)  : Wed Jan 11 14:14:31 2023
     Host name              : cn040                                   

 * Work memory size             :    64000000 =  488.28 megabytes.

 * Directories for basis set searches:
   1) /gpfs/projects/rjh/adrian/fd_compare/dalton/hf/F2/dipole
   2) /gpfs/projects/rjh/adrian/dalton/build/basis


Compilation information
-----------------------

 Who compiled             | ahurtado
 Host                     | sn-mem
 System                   | Linux-3.10.0-1160.24.1.el7.x86_64
 CMake generator          | Unix Makefiles
 Processor                | x86_64
 64-bit integers          | OFF
 MPI                      | ON
 Fortran compiler         | /gpfs/software/intel/oneAPI/2021_4/mpi/2021.4.0/bi
                          | n/mpif90
 Fortran compiler version | GNU Fortran (GCC) 11.2.0
 C compiler               | /gpfs/software/intel/oneAPI/2021_4/mpi/2021.4.0/bi
                          | n/mpicc
 C compiler version       | gcc (GCC) 11.2.0
 C++ compiler             | /gpfs/software/intel/oneAPI/2021_4/mpi/2021.4.0/bi
                          | n/mpicxx
 C++ compiler version     | unknown
 BLAS                     | /gpfs/software/intel/oneAPI/2021_4/mkl/2021.4.0/li
                          | b/intel64/libmkl_gf_lp64.so;/gpfs/software/intel/o
                          | neAPI/2021_4/mkl/2021.4.0/lib/intel64/libmkl_seque
                          | ntial.so;/gpfs/software/intel/oneAPI/2021_4/mkl/20
                          | 21.4.0/lib/intel64/libmkl_core.so;/usr/lib64/libpt
                          | hread.so;/usr/lib64/libm.so
 LAPACK                   | /gpfs/software/intel/oneAPI/2021_4/mkl/2021.4.0/li
                          | b/intel64/libmkl_lapack95_lp64.a;/gpfs/software/in
                          | tel/oneAPI/2021_4/mkl/2021.4.0/lib/intel64/libmkl_
                          | gf_lp64.so
 Static linking           | OFF
 Last Git revision        | 66052b3af5ea7225e31178bf9a8b031913c72190
 Git branch               | (HEAD detached at Dalton2020.0)
 Configuration time       | 2023-01-11 13:33:37.731835

 * MPI parallel run using 20 processes.


   Content of the .dal input file
 ----------------------------------

**DALTON INPUT
.RUN RESPONSE
.DIRECT
**WAVE FUNCTIONS
.HF
**RESPONSE
*LINEAR
.DIPLEN
.FREQUENCIES
9
0.0 0.0110174375 0.022034875 0.0330523125 0.04406975 0.055087187499999996 0.066104625 0.077122062499
**END OF DALTON INPUT


   Content of the .mol file
 ----------------------------

BASIS
aug-cc-pVQZ
blah
blah
Atomtype=1 Atomic
Charge=9 Atoms=2
F_a 0.000000000000 0.000000000000 0.000000000000
F_b 0.000000000000 0.000000000000 2.668160000000


       *******************************************************************
       *********** Output from DALTON general input processing ***********
       *******************************************************************

 --------------------------------------------------------------------------------
   Overall default print level:    0
   Print level for DALTON.STAT:    1

    Parallel calculation using MPI
    AO-direct calculation (in sections where implemented)
    HERMIT 1- and 2-electron integral sections will be executed
    "Old" integral transformation used (limited to max 255 basis functions)
    Wave function sections will be executed (SIRIUS module)
    Dynamic molecular response properties section will be executed (RESPONSE module)
 --------------------------------------------------------------------------------


   ****************************************************************************
   *************** Output of molecule and basis set information ***************
   ****************************************************************************


    The two title cards from your ".mol" input:
    ------------------------------------------------------------------------
 1: blah                                                                    
 2: blah                                                                    
    ------------------------------------------------------------------------

  Atomic type no.    1
  --------------------
  Nuclear charge:   9.00000
  Number of symmetry independent centers:    2
  Number of basis sets to read;    2
  Basis set file used for this atomic type with Z =   9 :
     "/gpfs/projects/rjh/adrian/dalton/build/basis/aug-cc-pVQZ"


                      SYMADD: Requested addition of symmetry
                      --------------------------------------

 Symmetry test threshold:  5.00E-06

@   The molecule is centered at center of mass and rotated
@   so principal axes of inertia are along coordinate axes.

 Symmetry class found: D(oo,h)        

 Symmetry Independent Centres             
 ----------------------------
F_b    9 :      0.00000000     0.00000000     1.33408000  Isotope  1

 The following symmetry elements were found:   X  Y  Z  


                         SYMGRP: Point group information
                         -------------------------------

@    Full point group is: D(oo,h)        
@    Represented as:      D2h

@  * The irrep name for each symmetry:    1: Ag     2: B3u    3: B2u    4: B1g    5: B1u    6: B2g    7: B3g    8: Au 


   * The point group was generated by:

      Reflection in the yz-plane
      Reflection in the xz-plane
      Reflection in the xy-plane

   * Group multiplication table

        |  E   C2z  C2y  C2x   i   Oxy  Oxz  Oyz
   -----+----------------------------------------
     E  |  E   C2z  C2y  C2x   i   Oxy  Oxz  Oyz
    C2z | C2z   E   C2x  C2y  Oxy   i   Oyz  Oxz
    C2y | C2y  C2x   E   C2z  Oxz  Oyz   i   Oxy
    C2x | C2x  C2y  C2z   E   Oyz  Oxz  Oxy   i 
     i  |  i   Oxy  Oxz  Oyz   E   C2z  C2y  C2x
    Oxy | Oxy   i   Oyz  Oxz  C2z   E   C2x  C2y
    Oxz | Oxz  Oyz   i   Oxy  C2y  C2x   E   C2z
    Oyz | Oyz  Oxz  Oxy   i   C2x  C2y  C2z   E 

   * Character table

        |  E   C2z  C2y  C2x   i   Oxy  Oxz  Oyz
   -----+----------------------------------------
    Ag  |   1    1    1    1    1    1    1    1
    B3u |   1   -1   -1    1   -1    1    1   -1
    B2u |   1   -1    1   -1   -1    1   -1    1
    B1g |   1    1   -1   -1    1    1   -1   -1
    B1u |   1    1   -1   -1   -1   -1    1    1
    B2g |   1   -1    1   -1    1   -1    1   -1
    B3g |   1   -1   -1    1    1   -1   -1    1
    Au  |   1    1    1    1   -1   -1   -1   -1

   * Direct product table

        | Ag   B3u  B2u  B1g  B1u  B2g  B3g  Au 
   -----+----------------------------------------
    Ag  | Ag   B3u  B2u  B1g  B1u  B2g  B3g  Au 
    B3u | B3u  Ag   B1g  B2u  B2g  B1u  Au   B3g
    B2u | B2u  B1g  Ag   B3u  B3g  Au   B1u  B2g
    B1g | B1g  B2u  B3u  Ag   Au   B3g  B2g  B1u
    B1u | B1u  B2g  B3g  Au   Ag   B3u  B2u  B1g
    B2g | B2g  B1u  Au   B3g  B3u  Ag   B1g  B2u
    B3g | B3g  Au   B1u  B2g  B2u  B1g  Ag   B3u
    Au  | Au   B3g  B2g  B1u  B1g  B2u  B3u  Ag 


                                 Isotopic Masses
                                 ---------------

                           F_b _1     18.998403
                           F_b _2     18.998403

                       Total mass:    37.996806 amu
                       Natural abundance: 100.000 %

 Center-of-mass coordinates (a.u.):    0.000000    0.000000    0.000000
 Center-of-mass coordinates (Angs):    0.000000    0.000000    0.000000


  Atoms and basis sets
  --------------------

  Number of atom types :    1
  Total number of atoms:    2

  Basis set used is "aug-cc-pVQZ" from the basis set library.

  label    atoms   charge   prim   cont     basis
  ----------------------------------------------------------------------
  F_          2    9.0000    93    80      [13s7p4d3f2g|6s5p4d3f2g]                           
  ----------------------------------------------------------------------
  total:      2   18.0000   186   160
  ----------------------------------------------------------------------
  Spherical harmonic basis used.

  Threshold for neglecting AO integrals:  1.00D-12


  Cartesian Coordinates (a.u.)
  ----------------------------

  Total number of coordinates:    6
  F_b / 1 :     1  x   0.0000000000    2  y   0.0000000000    3  z   1.3340800000
  F_b / 2 :     4  x   0.0000000000    5  y   0.0000000000    6  z  -1.3340800000


  Symmetry Coordinates
  --------------------

  Number of coordinates in each symmetry:     1    1    1    0    1    1    1    0

  Symmetry  Ag  ( 1)

    1   F_b   z    [  3  -    6 ]/2

  Symmetry  B3u ( 2)

    2   F_b   x    [  1  +    4 ]/2

  Symmetry  B2u ( 3)

    3   F_b   y    [  2  +    5 ]/2

  Symmetry  B1u ( 5)

    4   F_b   z    [  3  +    6 ]/2

  Symmetry  B2g ( 6)

    5   F_b   x    [  1  -    4 ]/2

  Symmetry  B3g ( 7)

    6   F_b   y    [  2  -    5 ]/2


   Interatomic separations (in Angstrom):
   --------------------------------------

            F_b _1      F_b _2
            ------      ------
 F_b _1:    0.000000
 F_b _2:    1.411929    0.000000


  Max    interatomic separation is    1.4119 Angstrom (    2.6682 Bohr)
  between atoms    2 and    1, "F_b _2" and "F_b _1".

  Min YX interatomic separation is    1.4119 Angstrom (    2.6682 Bohr)


  Bond distances (Angstrom):
  --------------------------

                  atom 1     atom 2       distance
                  ------     ------       --------
  bond distance:  F_b _2     F_b _1       1.411929




 Principal moments of inertia (u*A**2) and principal axes
 --------------------------------------------------------

   IA       0.000000          0.000000    0.000000    1.000000
   IB      18.937084          0.000000    1.000000    0.000000
   IC      18.937084          1.000000    0.000000    0.000000


 Rotational constants
 --------------------

@    The molecule is linear.

               B =        26687.27 MHz     (    0.890191 cm-1)


@  Nuclear repulsion energy :   30.357999520269 Hartree


  Symmetry Orbitals
  -----------------

  Number of orbitals in each symmetry:          31   19   19   11   31   19   19   11


  Symmetry  Ag ( 1)

    1     F_b      1s         1 +    2
    2     F_b      1s         3 +    4
    3     F_b      1s         5 +    6
    4     F_b      1s         7 +    8
    5     F_b      1s         9 +   10
    6     F_b      1s        11 +   12
    7     F_b      2pz       17 -   18
    8     F_b      2pz       23 -   24
    9     F_b      2pz       29 -   30
   10     F_b      2pz       35 -   36
   11     F_b      2pz       41 -   42
   12     F_b      3d0       47 +   48
   13     F_b      3d2+      51 +   52
   14     F_b      3d0       57 +   58
   15     F_b      3d2+      61 +   62
   16     F_b      3d0       67 +   68
   17     F_b      3d2+      71 +   72
   18     F_b      3d0       77 +   78
   19     F_b      3d2+      81 +   82
   20     F_b      4f0       89 -   90
   21     F_b      4f2+      93 -   94
   22     F_b      4f0      103 -  104
   23     F_b      4f2+     107 -  108
   24     F_b      4f0      117 -  118
   25     F_b      4f2+     121 -  122
   26     F_b      5g0      133 +  134
   27     F_b      5g2+     137 +  138
   28     F_b      5g4+     141 +  142
   29     F_b      5g0      151 +  152
   30     F_b      5g2+     155 +  156
   31     F_b      5g4+     159 +  160


  Symmetry  B3u( 2)

   32     F_b      2px       13 +   14
   33     F_b      2px       19 +   20
   34     F_b      2px       25 +   26
   35     F_b      2px       31 +   32
   36     F_b      2px       37 +   38
   37     F_b      3d1+      49 -   50
   38     F_b      3d1+      59 -   60
   39     F_b      3d1+      69 -   70
   40     F_b      3d1+      79 -   80
   41     F_b      4f1+      91 +   92
   42     F_b      4f3+      95 +   96
   43     F_b      4f1+     105 +  106
   44     F_b      4f3+     109 +  110
   45     F_b      4f1+     119 +  120
   46     F_b      4f3+     123 +  124
   47     F_b      5g1+     135 -  136
   48     F_b      5g3+     139 -  140
   49     F_b      5g1+     153 -  154
   50     F_b      5g3+     157 -  158


  Symmetry  B2u( 3)

   51     F_b      2py       15 +   16
   52     F_b      2py       21 +   22
   53     F_b      2py       27 +   28
   54     F_b      2py       33 +   34
   55     F_b      2py       39 +   40
   56     F_b      3d1-      45 -   46
   57     F_b      3d1-      55 -   56
   58     F_b      3d1-      65 -   66
   59     F_b      3d1-      75 -   76
   60     F_b      4f3-      83 +   84
   61     F_b      4f1-      87 +   88
   62     F_b      4f3-      97 +   98
   63     F_b      4f1-     101 +  102
   64     F_b      4f3-     111 +  112
   65     F_b      4f1-     115 +  116
   66     F_b      5g3-     127 -  128
   67     F_b      5g1-     131 -  132
   68     F_b      5g3-     145 -  146
   69     F_b      5g1-     149 -  150


  Symmetry  B1g( 4)

   70     F_b      3d2-      43 +   44
   71     F_b      3d2-      53 +   54
   72     F_b      3d2-      63 +   64
   73     F_b      3d2-      73 +   74
   74     F_b      4f2-      85 -   86
   75     F_b      4f2-      99 -  100
   76     F_b      4f2-     113 -  114
   77     F_b      5g4-     125 +  126
   78     F_b      5g2-     129 +  130
   79     F_b      5g4-     143 +  144
   80     F_b      5g2-     147 +  148


  Symmetry  B1u( 5)

   81     F_b      1s         1 -    2
   82     F_b      1s         3 -    4
   83     F_b      1s         5 -    6
   84     F_b      1s         7 -    8
   85     F_b      1s         9 -   10
   86     F_b      1s        11 -   12
   87     F_b      2pz       17 +   18
   88     F_b      2pz       23 +   24
   89     F_b      2pz       29 +   30
   90     F_b      2pz       35 +   36
   91     F_b      2pz       41 +   42
   92     F_b      3d0       47 -   48
   93     F_b      3d2+      51 -   52
   94     F_b      3d0       57 -   58
   95     F_b      3d2+      61 -   62
   96     F_b      3d0       67 -   68
   97     F_b      3d2+      71 -   72
   98     F_b      3d0       77 -   78
   99     F_b      3d2+      81 -   82
  100     F_b      4f0       89 +   90
  101     F_b      4f2+      93 +   94
  102     F_b      4f0      103 +  104
  103     F_b      4f2+     107 +  108
  104     F_b      4f0      117 +  118
  105     F_b      4f2+     121 +  122
  106     F_b      5g0      133 -  134
  107     F_b      5g2+     137 -  138
  108     F_b      5g4+     141 -  142
  109     F_b      5g0      151 -  152
  110     F_b      5g2+     155 -  156
  111     F_b      5g4+     159 -  160


  Symmetry  B2g( 6)

  112     F_b      2px       13 -   14
  113     F_b      2px       19 -   20
  114     F_b      2px       25 -   26
  115     F_b      2px       31 -   32
  116     F_b      2px       37 -   38
  117     F_b      3d1+      49 +   50
  118     F_b      3d1+      59 +   60
  119     F_b      3d1+      69 +   70
  120     F_b      3d1+      79 +   80
  121     F_b      4f1+      91 -   92
  122     F_b      4f3+      95 -   96
  123     F_b      4f1+     105 -  106
  124     F_b      4f3+     109 -  110
  125     F_b      4f1+     119 -  120
  126     F_b      4f3+     123 -  124
  127     F_b      5g1+     135 +  136
  128     F_b      5g3+     139 +  140
  129     F_b      5g1+     153 +  154
  130     F_b      5g3+     157 +  158


  Symmetry  B3g( 7)

  131     F_b      2py       15 -   16
  132     F_b      2py       21 -   22
  133     F_b      2py       27 -   28
  134     F_b      2py       33 -   34
  135     F_b      2py       39 -   40
  136     F_b      3d1-      45 +   46
  137     F_b      3d1-      55 +   56
  138     F_b      3d1-      65 +   66
  139     F_b      3d1-      75 +   76
  140     F_b      4f3-      83 -   84
  141     F_b      4f1-      87 -   88
  142     F_b      4f3-      97 -   98
  143     F_b      4f1-     101 -  102
  144     F_b      4f3-     111 -  112
  145     F_b      4f1-     115 -  116
  146     F_b      5g3-     127 +  128
  147     F_b      5g1-     131 +  132
  148     F_b      5g3-     145 +  146
  149     F_b      5g1-     149 +  150


  Symmetry  Au ( 8)

  150     F_b      3d2-      43 -   44
  151     F_b      3d2-      53 -   54
  152     F_b      3d2-      63 -   64
  153     F_b      3d2-      73 -   74
  154     F_b      4f2-      85 +   86
  155     F_b      4f2-      99 +  100
  156     F_b      4f2-     113 +  114
  157     F_b      5g4-     125 -  126
  158     F_b      5g2-     129 -  130
  159     F_b      5g4-     143 -  144
  160     F_b      5g2-     147 -  148

  Symmetries of electric field:  B3u(2)  B2u(3)  B1u(5)

  Symmetries of magnetic field:  B3g(7)  B2g(6)  B1g(4)


                     .---------------------------------------.
                     | Starting in Integral Section (HERMIT) |
                     `---------------------------------------'



 ***************************************************************************************
 ****************** Output from **INTEGRALS input processing (HERMIT) ******************
 ***************************************************************************************


 - Using defaults, no **INTEGRALS input found

 Default print level:        1

 Calculation of one-electron Hamiltonian integrals.

 Center of mass  (bohr):      0.000000000000      0.000000000000      0.000000000000
 Operator center (bohr):      0.000000000000      0.000000000000      0.000000000000
 Gauge origin    (bohr):      0.000000000000      0.000000000000      0.000000000000
 Dipole origin   (bohr):      0.000000000000      0.000000000000      0.000000000000


     ************************************************************************
     ************************** Output from HERINT **************************
     ************************************************************************



                      Nuclear contribution to dipole moments
                      --------------------------------------

                    All dipole components are zero by symmetry


  Total CPU  time used in HERMIT:   0.17 seconds
  Total wall time used in HERMIT:   0.17 seconds


                        .----------------------------------.
                        | End of Integral Section (HERMIT) |
                        `----------------------------------'



                   .--------------------------------------------.
                   | Starting in Wave Function Section (SIRIUS) |
                   `--------------------------------------------'


 *** Output from Huckel module :

     Using EWMO model:          F
     Using EHT  model:          T
     Number of Huckel orbitals each symmetry:    3    1    1    0    3    1    1    0

 Huckel EHT eigenvalues for symmetry :  1
          -26.385657      -1.787625      -0.792360

 Huckel EHT eigenvalues for symmetry :  2
           -0.800215

 Huckel EHT eigenvalues for symmetry :  3
           -0.800215

 Huckel EHT eigenvalues for symmetry :  5
          -26.385463      -1.454670      -0.564625

 Huckel EHT eigenvalues for symmetry :  6
           -0.659785

 Huckel EHT eigenvalues for symmetry :  7
           -0.659785

 **********************************************************************
 *SIRIUS* a direct, restricted step, second order MCSCF program       *
 **********************************************************************

 
     Date and time (Linux)  : Wed Jan 11 14:14:31 2023
     Host name              : cn040                                   

 Title lines from ".mol" input file:
     blah                                                                    
     blah                                                                    

 Print level on unit LUPRI =   2 is   0
 Print level on unit LUW4  =   2 is   5

@    Restricted, closed shell Hartree-Fock calculation.

@    Time-dependent Hartree-Fock calculation (random phase approximation).
 Fock matrices are calculated directly and in parallel without use of integrals on disk.

 Initial molecular orbitals are obtained according to
 ".MOSTART EHT   " input option

     Wave function specification
     ============================
@    Wave function type        --- HF ---
@    Number of closed shell electrons          18
@    Number of electrons in active shells       0
@    Total charge of the molecule               0

@    Spin multiplicity and 2 M_S                1         0
@    Total number of symmetries                 8 (point group: D2h)
@    Reference state symmetry                   1 (irrep name : Ag )

     Orbital specifications
     ======================
@    Abelian symmetry species          All |    1    2    3    4    5    6    7    8
@                                          |  Ag   B3u  B2u  B1g  B1u  B2g  B3g  Au 
                                       --- |  ---  ---  ---  ---  ---  ---  ---  ---
@    Total number of orbitals          160 |   31   19   19   11   31   19   19   11
@    Number of basis functions         160 |   31   19   19   11   31   19   19   11

      ** Automatic occupation of RHF orbitals **

      -- Initial occupation of symmetries is determined from extended Huckel guess.           
      -- Initial occupation of symmetries is :
@    Occupied SCF orbitals               9 |    3    1    1    0    2    1    1    0

     Maximum number of Fock   iterations      0
     Maximum number of DIIS   iterations     60
     Maximum number of QC-SCF iterations     60
     Threshold for SCF convergence     1.00D-05


 ***********************************************
 ***** DIIS acceleration of SCF iterations *****
 ***********************************************

 C1-DIIS algorithm; max error vectors =    8

 Automatic occupation of symmetries with  18 electrons.

 Iter     Total energy    Error norm  Delta(E)    SCF occupation
 -----------------------------------------------------------------------------
   1  Screening settings (-IFTHRS, JTDIIS, DIFDEN, times)   -7    1    T  5.62D-01  5.63D-01
@  1  -198.649401676       1.92D+00  -1.99D+02     3   1   1   0   2   1   1   0
      Virial theorem: -V/T =      2.002649
@    MULPOP   F_b _1  0.00; F_b _2  0.00; 
   1  Level shift: doubly occupied orbital energies shifted by -2.00D-01
 -----------------------------------------------------------------------------
   2  Screening settings (-IFTHRS, JTDIIS, DIFDEN, times)   -7    2    T  4.96D-01  4.96D-01
@  2  -198.761914253       4.43D-01  -1.13D-01     3   1   1   0   2   1   1   0
      Virial theorem: -V/T =      1.999729
@    MULPOP   F_b _1 -0.00; F_b _2 -0.00; 
   2  Level shift: doubly occupied orbital energies shifted by -5.00D-02
 -----------------------------------------------------------------------------
   3  Screening settings (-IFTHRS, JTDIIS, DIFDEN, times)   -7    3    T  4.60D-01  4.60D-01
@  3  -198.768241190       9.21D-02  -6.33D-03     3   1   1   0   2   1   1   0
      Virial theorem: -V/T =      2.001523
@    MULPOP   F_b _1  0.00; F_b _2  0.00; 
   3  Level shift: doubly occupied orbital energies shifted by -1.25D-02
 -----------------------------------------------------------------------------
   4  Screening settings (-IFTHRS, JTDIIS, DIFDEN, times)  -11    4    F  4.83D-01  4.84D-01
@  4  -198.768936153       3.13D-02  -6.95D-04     3   1   1   0   2   1   1   0
      Virial theorem: -V/T =      2.000817
@    MULPOP   F_b _1 -0.00; F_b _2 -0.00; 
 -----------------------------------------------------------------------------
   5  Screening settings (-IFTHRS, JTDIIS, DIFDEN, times)  -11    5    T  4.72D-01  4.73D-01
@  5  -198.768988930       6.78D-03  -5.28D-05     3   1   1   0   2   1   1   0
      Virial theorem: -V/T =      2.001077
@    MULPOP   F_b _1 -0.00; F_b _2 -0.00; 
 -----------------------------------------------------------------------------
   6  Screening settings (-IFTHRS, JTDIIS, DIFDEN, times)  -11    6    T  4.68D-01  4.69D-01
@  6  -198.768991357       6.84D-04  -2.43D-06     3   1   1   0   2   1   1   0
      Virial theorem: -V/T =      2.001024
@    MULPOP   F_b _1 -0.00; F_b _2 -0.00; 
 -----------------------------------------------------------------------------
   7  Screening settings (-IFTHRS, JTDIIS, DIFDEN, times)  -11    7    T  4.75D-01  4.75D-01
@  7  -198.768991393       6.85D-05  -3.58D-08     3   1   1   0   2   1   1   0
      Virial theorem: -V/T =      2.001026
@    MULPOP   F_b _1 -0.00; F_b _2 -0.00; 
 -----------------------------------------------------------------------------
   8  Screening settings (-IFTHRS, JTDIIS, DIFDEN, times)  -11    8    T  4.80D-01  4.79D-01
@  8  -198.768991393       7.29D-06  -4.01D-10     3   1   1   0   2   1   1   0

@ *** DIIS converged in   8 iterations !
@     Converged SCF energy, gradient:   -198.768991393394    7.29D-06
    - total time used in SIRFCK :              0.00 seconds


 *** SCF orbital energy analysis ***

 Only the 20 lowest virtual orbital energies printed in each symmetry.

 Number of electrons :   18
 Orbital occupations :    3    1    1    0    2    1    1    0

 Sym       Hartree-Fock orbital energies

1 Ag    -26.42933483    -1.76528603    -0.75213896     0.15320283     0.22686694
          0.57292520     0.70664295     1.00816253     1.29866373     1.76554134
          1.96588814     2.01287822     2.77845304     3.27734146     4.57725102
          4.57899550     4.75906787     5.17873245     5.54258436     5.60077217
          5.64833242     7.58981449    13.02276317

2 B3u    -0.81161239     0.16439999     0.72656374     0.83860544     1.73912468
          1.79087072     2.37618507     3.36139511     4.37823627     4.77283623
          5.40433194     5.58034353     6.52516891    12.91708098    13.51570447
         13.97005682    15.72921164    15.74718808    16.87856224

3 B2u    -0.81161239     0.16439999     0.72656374     0.83860544     1.73912468
          1.79087072     2.37618507     3.36139511     4.37823627     4.77283623
          5.40433194     5.58034353     6.52516891    12.91708098    13.51570447
         13.97005682    15.72921164    15.74718808    16.87856224

4 B1g     0.57292520     1.76554134     2.01287822     4.57725102     4.57899550
          5.54258436     5.64833242    13.56302230    13.78275486    15.66724960
         16.61750193

5 B1u   -26.42908889    -1.49808935     0.06072941     0.14435644     0.37364782
          0.75208798     0.76515123     0.96975791     1.93104848     2.06864109
          2.30977798     2.48675029     2.54888114     4.81061625     4.99041205
          5.48571495     5.55238923     5.77324332     5.80874794     6.02340980
          6.44792081     8.01165422

6 B2g    -0.66711059     0.21177486     0.77699265     1.09614352     2.03705675
          2.09408566     2.87459075     3.70626981     5.29711727     5.31364042
          5.54560597     6.22297304     7.52193141    13.46332968    13.79691586
         14.11187403    15.82003055    16.78201937    17.19030399

7 B3g    -0.66711059     0.21177486     0.77699265     1.09614352     2.03705675
          2.09408566     2.87459075     3.70626981     5.29711727     5.31364042
          5.54560597     6.22297304     7.52193141    13.46332968    13.79691586
         14.11187403    15.82003055    16.78201937    17.19030399

8 Au      0.76515123     2.06864109     2.48675029     4.81061625     5.55238923
          5.77324332     6.44792081    13.65737541    14.00135695    16.00269536
         16.74374513

    E(LUMO) :     0.06072941 au (symmetry 5)
  - E(HOMO) :    -0.66711059 au (symmetry 6)
  ------------------------------------------
    gap     :     0.72783999 au

 --- Writing SIRIFC interface file

 CPU and wall time for SCF :       3.916       3.920


                       .-----------------------------------.
                       | --- Final results from SIRIUS --- |
                       `-----------------------------------'


@    Spin multiplicity:           1
@    Spatial symmetry:            1 ( irrep  Ag  in D2h )
@    Total charge of molecule:    0

@    Final HF energy:            -198.768991393394                 
@    Nuclear repulsion:            30.357999520269
@    Electronic energy:          -229.126990913663

@    Final gradient norm:           0.000007286179

 
     Date and time (Linux)  : Wed Jan 11 14:14:35 2023
     Host name              : cn040                                   

File label for MO orbitals:  11Jan23   FOCKDIIS

 (Only coefficients > 0.0100 are printed.)

 Molecular orbitals for symmetry species 1  (Ag )
 ------------------------------------------------

    Orbital         1        2        3        4        5        6        7
   1 F_b :1s     0.7074  -0.0016   0.0024  -0.0094  -0.0059   0.0000  -0.0114
   2 F_b :1s     0.0007   0.6655   0.1627  -0.1627  -0.1194   0.0000  -0.0761
   3 F_b :1s    -0.0000  -0.0018   0.0051  -0.0196  -0.0087   0.0000  -0.0463
   4 F_b :1s    -0.0013  -0.0047   0.0071   0.0954   0.0439  -0.0000   0.2279
   5 F_b :1s     0.0000  -0.0253   0.0502  -0.5469  -0.8779  -0.0000   1.6031
   6 F_b :1s    -0.0000   0.0011   0.0118   0.9867   0.4574   0.0000  -0.6314
   7 F_b :2pz   -0.0041  -0.0851   0.6323  -0.0778   0.0325   0.0000   0.1833
   8 F_b :2pz    0.0017  -0.0015  -0.0016  -0.0154  -0.0050  -0.0000   0.0167
   9 F_b :2pz    0.0020  -0.0046   0.0141   0.0740   0.0876  -0.0000  -0.2533
  10 F_b :2pz    0.0006   0.0085  -0.0016  -0.2197  -0.0357  -0.0000   0.0910
  11 F_b :2pz   -0.0000   0.0005   0.0049   0.7768  -1.3054   0.0000   1.2306
  14 F_b :3d0   -0.0004   0.0047  -0.0098  -0.0113  -0.0084  -0.0000  -0.0148
  15 F_b :3d2+   0.0000  -0.0000  -0.0000   0.0000   0.0000  -0.0489   0.0000
  16 F_b :3d0    0.0002   0.0098  -0.0222   0.0232  -0.0346  -0.0000   0.1028
  17 F_b :3d2+  -0.0000   0.0000   0.0000  -0.0000  -0.0000   0.1205  -0.0000
  18 F_b :3d0    0.0003   0.0032  -0.0139   0.0133   0.3534  -0.0000  -1.6042
  19 F_b :3d2+   0.0000  -0.0000  -0.0000   0.0000   0.0000  -0.6426   0.0000
  22 F_b :4f0    0.0000  -0.0029   0.0054   0.0072   0.0215   0.0000  -0.0462
  24 F_b :4f0   -0.0003  -0.0041   0.0054  -0.0352  -0.0941   0.0000   0.2776
  25 F_b :4f2+  -0.0000   0.0000   0.0000  -0.0000  -0.0000  -0.0178   0.0000
  29 F_b :5g0    0.0001   0.0017  -0.0021   0.0055   0.0091  -0.0000  -0.0426

    Orbital         8        9       10       11       12       13
   1 F_b :1s    -0.0125  -0.0429  -0.0000  -0.0470   0.0000  -0.0075
   2 F_b :1s     0.2859   0.0737  -0.0000  -0.1763  -0.0000   0.3423
   3 F_b :1s    -0.0324  -0.1721   0.0000  -0.1996  -0.0000  -0.1520
   4 F_b :1s     0.4840   1.1794  -0.0000   1.2204   0.0000   1.6744
   5 F_b :1s    -2.8941   0.3183  -0.0000   0.9075   0.0000   0.4956
   6 F_b :1s     1.2521  -0.3573  -0.0000  -0.5489  -0.0000  -0.6853
   7 F_b :2pz    0.2680  -0.3142  -0.0000   0.1010  -0.0000  -0.3902
   8 F_b :2pz   -0.1168   0.1030  -0.0000   0.0465   0.0000   0.0878
   9 F_b :2pz    0.7607  -0.6666  -0.0000  -0.7143   0.0000  -1.1894
  10 F_b :2pz   -1.6312   1.4672   0.0000   1.0919   0.0000   2.1104
  11 F_b :2pz   -0.1794   0.2576  -0.0000   0.5787   0.0000   0.2715
  12 F_b :3d0    0.0116  -0.0011  -0.0000   0.0145  -0.0000  -0.0315
  13 F_b :3d2+   0.0000   0.0000  -0.0224   0.0000   0.0326   0.0000
  14 F_b :3d0   -0.0602   0.0199  -0.0000   0.0581  -0.0000   0.0241
  15 F_b :3d2+  -0.0000  -0.0000   0.0365  -0.0000  -0.0600  -0.0000
  16 F_b :3d0    0.0203   0.1632   0.0000   0.6783   0.0000  -0.4035
  17 F_b :3d2+   0.0000   0.0000  -0.4964   0.0000   0.7932   0.0000
  18 F_b :3d0    1.1087  -1.3948   0.0000  -1.6007  -0.0000  -1.4549
  19 F_b :3d2+  -0.0000  -0.0000   0.3347  -0.0000  -0.3241  -0.0000
  20 F_b :4f0   -0.0058  -0.0072   0.0000   0.0136  -0.0000   0.0250
  21 F_b :4f2+   0.0000  -0.0000   0.0200   0.0000   0.0167  -0.0000
  22 F_b :4f0    0.0709  -0.0001   0.0000  -0.1319  -0.0000  -0.1979
  23 F_b :4f2+  -0.0000   0.0000  -0.1061  -0.0000  -0.1006   0.0000
  24 F_b :4f0   -0.4084   0.0679  -0.0000   0.8466  -0.0000   1.3146
  25 F_b :4f2+   0.0000  -0.0000   0.5221   0.0000   0.4556  -0.0000
  26 F_b :5g0   -0.0154   0.0184  -0.0000   0.0207   0.0000   0.0078
  29 F_b :5g0    0.0706  -0.0734  -0.0000  -0.0959   0.0000  -0.0458
  30 F_b :5g2+  -0.0000  -0.0000   0.0236  -0.0000   0.0275  -0.0000

 Molecular orbitals for symmetry species 2  (B3u)
 ------------------------------------------------

    Orbital         1        2        3        4        5        6        7
   1 F_b :2px    0.6841   0.1283   0.0461   0.5105   0.0000   0.1282   0.2010
   2 F_b :2px   -0.0022   0.0196   0.0029  -0.0944  -0.0000   0.0336   0.0167
   3 F_b :2px    0.0001  -0.0527  -0.0003   0.3378  -0.0000  -0.0931   0.0870
   4 F_b :2px   -0.0212   0.2485   0.3348  -1.2199  -0.0000  -0.1113   0.1265
   5 F_b :2px    0.0029  -0.6643  -0.1052   0.4321   0.0000   0.0016  -0.0836
   6 F_b :3d1+  -0.0011  -0.0002  -0.0041  -0.0002  -0.0000   0.0334  -0.0121
   7 F_b :3d1+  -0.0053  -0.0020   0.0540  -0.0001  -0.0000  -0.0409   0.0457
   8 F_b :3d1+  -0.0108  -0.0006  -0.1411  -0.0004   0.0000   0.8177  -0.5441
   9 F_b :3d1+  -0.0003   0.0034   0.8140  -0.0596   0.0000  -0.5568   0.5197
  10 F_b :4f1+   0.0011  -0.0003   0.0000   0.0032   0.0000  -0.0039  -0.0299
  11 F_b :4f3+  -0.0000  -0.0000  -0.0000  -0.0000   0.0268  -0.0000  -0.0000
  12 F_b :4f1+   0.0040   0.0042   0.0023  -0.0128   0.0000  -0.0006   0.1946
  13 F_b :4f3+  -0.0000   0.0000  -0.0000  -0.0000  -0.1548  -0.0000  -0.0000
  14 F_b :4f1+   0.0027  -0.0081  -0.0172   0.0487  -0.0000  -0.0579  -0.9921
  15 F_b :4f3+  -0.0000  -0.0000  -0.0000  -0.0000   0.7265  -0.0000  -0.0000
  16 F_b :5g1+  -0.0003   0.0004  -0.0051  -0.0014  -0.0000   0.0142  -0.0032
  18 F_b :5g1+  -0.0009  -0.0018   0.0214   0.0039  -0.0000  -0.0500   0.0022

    Orbital         8        9       10       11
   1 F_b :2px   -0.7247   0.0000  -0.0351   0.0000
   2 F_b :2px   -0.5741  -0.0000   0.0781  -0.0000
   3 F_b :2px    1.7577  -0.0000  -0.1533  -0.0000
   4 F_b :2px   -0.5135  -0.0000   0.0972  -0.0000
   5 F_b :2px    0.1797   0.0000  -0.0350   0.0000
   6 F_b :3d1+   0.0049   0.0000   0.0231  -0.0000
   7 F_b :3d1+   0.0047   0.0000  -0.3667  -0.0000
   8 F_b :3d1+  -0.0031  -0.0000   0.3863   0.0000
   9 F_b :3d1+   0.0462  -0.0000  -0.1864   0.0000
  10 F_b :4f1+  -0.0067  -0.0000  -0.0283   0.0000
  11 F_b :4f3+   0.0000   0.0064  -0.0000  -0.0646
  12 F_b :4f1+   0.0486  -0.0000   0.4889   0.0000
  13 F_b :4f3+   0.0000  -0.0634  -0.0000   0.9339
  14 F_b :4f1+  -0.2583   0.0000  -0.1955   0.0000
  15 F_b :4f3+   0.0000   0.1134  -0.0000  -0.4336
  16 F_b :5g1+  -0.0001   0.0000   0.0543  -0.0000
  17 F_b :5g3+   0.0000  -0.1065  -0.0000  -0.0071
  18 F_b :5g1+  -0.0143   0.0000  -0.4267  -0.0000
  19 F_b :5g3+   0.0000   0.6951   0.0000   0.0361

 Molecular orbitals for symmetry species 3  (B2u)
 ------------------------------------------------

    Orbital         1        2        3        4        5        6        7
   1 F_b :2py    0.6841   0.1283   0.0461   0.5105  -0.0000   0.1282   0.2010
   2 F_b :2py   -0.0022   0.0196   0.0029  -0.0944   0.0000   0.0336   0.0167
   3 F_b :2py    0.0001  -0.0527  -0.0003   0.3378   0.0000  -0.0931   0.0870
   4 F_b :2py   -0.0212   0.2485   0.3348  -1.2199   0.0000  -0.1113   0.1265
   5 F_b :2py    0.0029  -0.6643  -0.1052   0.4321  -0.0000   0.0016  -0.0836
   6 F_b :3d1-  -0.0011  -0.0002  -0.0041  -0.0002  -0.0000   0.0334  -0.0121
   7 F_b :3d1-  -0.0053  -0.0020   0.0540  -0.0001  -0.0000  -0.0409   0.0457
   8 F_b :3d1-  -0.0108  -0.0006  -0.1411  -0.0004   0.0000   0.8177  -0.5441
   9 F_b :3d1-  -0.0003   0.0034   0.8140  -0.0596   0.0000  -0.5568   0.5197
  10 F_b :4f3-  -0.0000  -0.0000  -0.0000  -0.0000   0.0268  -0.0000  -0.0000
  11 F_b :4f1-   0.0011  -0.0003   0.0000   0.0032   0.0000  -0.0039  -0.0299
  12 F_b :4f3-  -0.0000  -0.0000  -0.0000  -0.0000  -0.1548  -0.0000  -0.0000
  13 F_b :4f1-   0.0040   0.0042   0.0023  -0.0128   0.0000  -0.0006   0.1946
  14 F_b :4f3-   0.0000   0.0000   0.0000   0.0000   0.7265   0.0000   0.0000
  15 F_b :4f1-   0.0027  -0.0081  -0.0172   0.0487  -0.0000  -0.0579  -0.9921
  17 F_b :5g1-  -0.0003   0.0004  -0.0051  -0.0014  -0.0000   0.0142  -0.0032
  19 F_b :5g1-  -0.0009  -0.0018   0.0214   0.0039  -0.0000  -0.0500   0.0022

    Orbital         8        9       10       11
   1 F_b :2py   -0.7247  -0.0000  -0.0351   0.0000
   2 F_b :2py   -0.5741   0.0000   0.0781  -0.0000
   3 F_b :2py    1.7577   0.0000  -0.1533  -0.0000
   4 F_b :2py   -0.5135   0.0000   0.0972  -0.0000
   5 F_b :2py    0.1797  -0.0000  -0.0350   0.0000
   6 F_b :3d1-   0.0049   0.0000   0.0231  -0.0000
   7 F_b :3d1-   0.0047   0.0000  -0.3667  -0.0000
   8 F_b :3d1-  -0.0031  -0.0000   0.3863  -0.0000
   9 F_b :3d1-   0.0462  -0.0000  -0.1864   0.0000
  10 F_b :4f3-   0.0000   0.0064  -0.0000  -0.0646
  11 F_b :4f1-  -0.0067  -0.0000  -0.0283   0.0000
  12 F_b :4f3-   0.0000  -0.0634  -0.0000   0.9339
  13 F_b :4f1-   0.0486  -0.0000   0.4889   0.0000
  14 F_b :4f3-  -0.0000   0.1134  -0.0000  -0.4336
  15 F_b :4f1-  -0.2583   0.0000  -0.1955   0.0000
  16 F_b :5g3-  -0.0000  -0.1065   0.0000  -0.0071
  17 F_b :5g1-  -0.0001   0.0000   0.0543  -0.0000
  18 F_b :5g3-   0.0000   0.6951   0.0000   0.0361
  19 F_b :5g1-  -0.0143   0.0000  -0.4267  -0.0000

 Molecular orbitals for symmetry species 4  (B1g)
 ------------------------------------------------

    Orbital         1        2        3        4        5        6        7
   1 F_b :3d2-   0.0047   0.0224   0.0326   0.0000  -0.0070   0.0021   0.0321
   2 F_b :3d2-  -0.0489  -0.0365  -0.0600   0.0000   0.0269  -0.0974  -0.9664
   3 F_b :3d2-   0.1205   0.4964   0.7932   0.0000  -0.1426  -0.0213   0.7426
   4 F_b :3d2-  -0.6426  -0.3347  -0.3241   0.0000   0.0738  -0.0268  -0.2339
   5 F_b :4f2-  -0.0009  -0.0200   0.0167   0.0000   0.0282  -0.0609   0.0088
   6 F_b :4f2-   0.0078   0.1061  -0.1006   0.0000  -0.3730   0.8775  -0.1039
   7 F_b :4f2-  -0.0178  -0.5221   0.4556   0.0000   0.2260  -0.4230   0.0820
   8 F_b :5g4-   0.0000   0.0000   0.0000  -0.1155   0.0000   0.0000   0.0000
   9 F_b :5g2-   0.0006   0.0060  -0.0040   0.0000  -0.0774  -0.0476   0.0050
  10 F_b :5g4-   0.0000   0.0000   0.0000   0.7499   0.0000   0.0000   0.0000
  11 F_b :5g2-  -0.0043  -0.0236   0.0275   0.0000   0.5795   0.3603  -0.0521

    Orbital         8        9       10
   1 F_b :3d2-   0.0000   0.0052   0.0347
   2 F_b :3d2-   0.0000  -0.0122  -0.0293
   3 F_b :3d2-   0.0000   0.0610  -0.0064
   4 F_b :3d2-   0.0000  -0.0212  -0.0147
   5 F_b :4f2-   0.0000  -0.0330  -0.8469
   6 F_b :4f2-   0.0000  -0.0346   0.5219
   7 F_b :4f2-   0.0000   0.0032  -0.2011
   8 F_b :5g4-   0.8374   0.0000   0.0000
   9 F_b :5g2-   0.0000   0.8571  -0.0537
  10 F_b :5g4-  -0.3558   0.0000   0.0000
  11 F_b :5g2-   0.0000  -0.3876   0.0632

 Molecular orbitals for symmetry species 5  (B1u)
 ------------------------------------------------

    Orbital         1        2        3        4        5        6        7
   1 F_b :1s     0.7074   0.0010  -0.0042   0.0021   0.0019  -0.0249   0.0000
   2 F_b :1s     0.0008   0.7264  -0.2169  -0.1012  -0.0680  -0.2001   0.0000
   3 F_b :1s    -0.0000   0.0023  -0.0075   0.0159   0.0234  -0.0783   0.0000
   4 F_b :1s    -0.0017   0.0006   0.0513  -0.2174  -0.4466   0.6347  -0.0000
   5 F_b :1s     0.0037   0.0253  -0.5435   1.0907   2.6027  -3.6580   0.0000
   6 F_b :1s     0.0018   0.0104  -2.5117   6.1641  12.5160  -5.8490   0.0000
   7 F_b :2pz   -0.0040   0.0948   0.5166   0.4767  -0.2767   0.2278   0.0000
   8 F_b :2pz    0.0018  -0.0014  -0.0051   0.0186   0.0397  -0.0310  -0.0000
   9 F_b :2pz    0.0013  -0.0045   0.0352  -0.0273  -0.1116   0.1152  -0.0000
  10 F_b :2pz   -0.0017  -0.0254   0.6884  -1.4751  -4.0677   3.3590  -0.0000
  11 F_b :2pz   -0.0004  -0.0007   1.1554  -2.3387  -3.2472   1.4875  -0.0000
  14 F_b :3d0   -0.0004  -0.0029   0.0081  -0.0046  -0.0357  -0.0227  -0.0000
  15 F_b :3d2+   0.0000  -0.0000   0.0000   0.0000   0.0000   0.0000   0.0521
  16 F_b :3d0    0.0004  -0.0045  -0.0226   0.1124   0.3025  -0.0243   0.0000
  17 F_b :3d2+  -0.0000   0.0000  -0.0000  -0.0000  -0.0000  -0.0000  -0.1522
  18 F_b :3d0    0.0007   0.0026  -0.1789   0.5781   1.1667  -1.9337   0.0000
  19 F_b :3d2+   0.0000  -0.0000  -0.0000  -0.0000   0.0000  -0.0000   1.1197
  22 F_b :4f0   -0.0000   0.0006   0.0012  -0.0024  -0.0165  -0.0141   0.0000
  23 F_b :4f2+  -0.0000   0.0000  -0.0000  -0.0000   0.0000  -0.0000   0.0140
  24 F_b :4f0   -0.0002  -0.0001   0.0259  -0.0764  -0.1751   0.1408   0.0000
  25 F_b :4f2+   0.0000  -0.0000   0.0000   0.0000  -0.0000   0.0000  -0.0678
  29 F_b :5g0    0.0000   0.0002  -0.0034   0.0107   0.0264  -0.0152  -0.0000
  30 F_b :5g2+  -0.0000  -0.0000   0.0000   0.0000  -0.0000   0.0000   0.0161

    Orbital         8        9       10       11       12
   1 F_b :1s     0.0103   0.0527   0.0000   0.0163   0.0000
   2 F_b :1s     0.2318  -0.1821  -0.0000  -0.0521   0.0000
   3 F_b :1s     0.0608   0.2751  -0.0000   0.1118   0.0000
   4 F_b :1s    -0.9680  -3.0308   0.0000  -1.1777  -0.0000
   5 F_b :1s     7.1830  11.7723   0.0000   2.2912  -0.0000
   6 F_b :1s    12.7089   7.8913   0.0000   1.0681   0.0000
   7 F_b :2pz    0.2958  -0.0009  -0.0000  -0.1145  -0.0000
   8 F_b :2pz    0.0928   0.1367   0.0000  -0.0159   0.0000
   9 F_b :2pz   -0.1799  -0.3730   0.0000   0.2873   0.0000
  10 F_b :2pz   -8.9614  -8.8068   0.0000  -1.7250   0.0000
  11 F_b :2pz   -2.6067  -1.5966  -0.0000  -0.1044  -0.0000
  12 F_b :3d0    0.0136  -0.0079   0.0000   0.0184   0.0000
  13 F_b :3d2+   0.0000  -0.0000   0.0357  -0.0000  -0.0185
  14 F_b :3d0   -0.0914  -0.0456  -0.0000  -0.0588   0.0000
  15 F_b :3d2+  -0.0000   0.0000  -0.0499   0.0000   0.0288
  16 F_b :3d0    0.8307   0.3134  -0.0000   0.5993   0.0000
  17 F_b :3d2+   0.0000  -0.0000   0.8666  -0.0000  -0.5000
  18 F_b :3d0    2.2495   2.7914   0.0000  -0.0989  -0.0000
  19 F_b :3d2+  -0.0000   0.0000  -0.8489   0.0000  -0.3430
  20 F_b :4f0    0.0085   0.0043   0.0000   0.0336  -0.0000
  21 F_b :4f2+   0.0000   0.0000   0.0114  -0.0000   0.0290
  22 F_b :4f0   -0.0532  -0.0333   0.0000  -0.2083  -0.0000
  23 F_b :4f2+  -0.0000  -0.0000  -0.0761   0.0000  -0.1889
  24 F_b :4f0   -0.3969  -0.4545   0.0000   0.9016   0.0000
  25 F_b :4f2+   0.0000   0.0000   0.4929  -0.0000   1.2832
  27 F_b :5g2+   0.0000  -0.0000   0.0106  -0.0000   0.0046
  29 F_b :5g0    0.0647   0.0715  -0.0000   0.0304   0.0000
  30 F_b :5g2+  -0.0000   0.0000  -0.0516   0.0000  -0.0303

 Molecular orbitals for symmetry species 6  (B2g)
 ------------------------------------------------

    Orbital         1        2        3        4        5        6        7
   1 F_b :2px    0.7455  -0.0968  -0.2865  -0.3432   0.0000   0.0474   0.4640
   2 F_b :2px   -0.0012  -0.0129   0.0361   0.0601  -0.0000  -0.0721   0.1774
   3 F_b :2px   -0.0004   0.0353  -0.0970  -0.3630  -0.0000   0.1230  -0.6147
   4 F_b :2px    0.0114  -0.1112  -1.0237   4.3236  -0.0000   3.0005   3.8316
   5 F_b :2px    0.0111   1.8629  -1.3058   0.0639   0.0000   0.5386  -0.1547
   6 F_b :3d1+  -0.0001   0.0018  -0.0017  -0.0083  -0.0000   0.0093  -0.0503
   7 F_b :3d1+  -0.0000  -0.0066   0.0232   0.0552  -0.0000   0.0618   0.1551
   8 F_b :3d1+   0.0038   0.0361  -0.0073  -0.3479   0.0000  -0.0676  -1.8397
   9 F_b :3d1+  -0.0029  -0.1950   2.0119  -2.6646   0.0000  -2.4416  -1.9250
  10 F_b :4f1+   0.0008   0.0010  -0.0048  -0.0002   0.0000   0.0159   0.0054
  11 F_b :4f3+  -0.0000   0.0000   0.0000   0.0000   0.0286   0.0000  -0.0000
  12 F_b :4f1+   0.0010  -0.0066   0.0332  -0.0227   0.0000  -0.1045  -0.0611
  13 F_b :4f3+   0.0000  -0.0000  -0.0000  -0.0000  -0.1701  -0.0000   0.0000
  14 F_b :4f1+  -0.0008   0.0162  -0.2776   0.6126  -0.0000   1.4029   1.6727
  15 F_b :4f3+  -0.0000   0.0000   0.0000   0.0000   0.8932   0.0000  -0.0000
  16 F_b :5g1+   0.0001  -0.0005  -0.0049   0.0189  -0.0000   0.0206   0.0297
  18 F_b :5g1+   0.0004   0.0032   0.0311  -0.1259   0.0000  -0.1467  -0.2378

    Orbital         8        9       10       11
   1 F_b :2px    0.6162  -0.0000   0.1654   0.0000
   2 F_b :2px    0.4302   0.0000   0.2571  -0.0000
   3 F_b :2px   -1.3859   0.0000  -0.9314  -0.0000
   4 F_b :2px   -0.6724   0.0000  -2.1065  -0.0000
   5 F_b :2px   -0.2582  -0.0000  -0.2068   0.0000
   6 F_b :3d1+   0.0117   0.0000   0.0080  -0.0000
   7 F_b :3d1+   0.0895   0.0000   0.1867  -0.0000
   8 F_b :3d1+   0.5798  -0.0000   1.1094   0.0000
   9 F_b :3d1+   0.5952  -0.0000   1.3992   0.0000
  10 F_b :4f1+  -0.0226  -0.0000  -0.0078   0.0000
  11 F_b :4f3+  -0.0000   0.0098  -0.0000  -0.0627
  12 F_b :4f1+   0.1731  -0.0000   0.2983   0.0000
  13 F_b :4f3+   0.0000  -0.1579   0.0000   0.9513
  14 F_b :4f1+  -0.7260   0.0000  -1.3365  -0.0000
  15 F_b :4f3+  -0.0000  -0.0733  -0.0000  -0.5768
  16 F_b :5g1+   0.0350   0.0000  -0.1104  -0.0000
  17 F_b :5g3+  -0.0000  -0.1145  -0.0000  -0.0253
  18 F_b :5g1+  -0.2455  -0.0000   0.9615  -0.0000
  19 F_b :5g3+   0.0000   0.8591   0.0000   0.1901

 Molecular orbitals for symmetry species 7  (B3g)
 ------------------------------------------------

    Orbital         1        2        3        4        5        6        7
   1 F_b :2py    0.7455  -0.0968  -0.2865  -0.3432  -0.0000   0.0474   0.4640
   2 F_b :2py   -0.0012  -0.0129   0.0361   0.0601   0.0000  -0.0721   0.1774
   3 F_b :2py   -0.0004   0.0353  -0.0970  -0.3630   0.0000   0.1230  -0.6147
   4 F_b :2py    0.0114  -0.1112  -1.0237   4.3236   0.0000   3.0005   3.8316
   5 F_b :2py    0.0111   1.8629  -1.3058   0.0639  -0.0000   0.5386  -0.1547
   6 F_b :3d1-  -0.0001   0.0018  -0.0017  -0.0083  -0.0000   0.0093  -0.0503
   7 F_b :3d1-  -0.0000  -0.0066   0.0232   0.0552  -0.0000   0.0618   0.1551
   8 F_b :3d1-   0.0038   0.0361  -0.0073  -0.3479   0.0000  -0.0676  -1.8397
   9 F_b :3d1-  -0.0029  -0.1950   2.0119  -2.6646  -0.0000  -2.4416  -1.9250
  10 F_b :4f3-  -0.0000   0.0000   0.0000   0.0000   0.0286   0.0000  -0.0000
  11 F_b :4f1-   0.0008   0.0010  -0.0048  -0.0002   0.0000   0.0159   0.0054
  12 F_b :4f3-  -0.0000   0.0000   0.0000   0.0000  -0.1701   0.0000  -0.0000
  13 F_b :4f1-   0.0010  -0.0066   0.0332  -0.0227   0.0000  -0.1045  -0.0611
  14 F_b :4f3-   0.0000  -0.0000  -0.0000  -0.0000   0.8932  -0.0000   0.0000
  15 F_b :4f1-  -0.0008   0.0162  -0.2776   0.6126  -0.0000   1.4029   1.6727
  17 F_b :5g1-   0.0001  -0.0005  -0.0049   0.0189  -0.0000   0.0206   0.0297
  19 F_b :5g1-   0.0004   0.0032   0.0311  -0.1259  -0.0000  -0.1467  -0.2378

    Orbital         8        9       10       11
   1 F_b :2py    0.6162  -0.0000   0.1654   0.0000
   2 F_b :2py    0.4302   0.0000   0.2571  -0.0000
   3 F_b :2py   -1.3859   0.0000  -0.9314  -0.0000
   4 F_b :2py   -0.6724   0.0000  -2.1065  -0.0000
   5 F_b :2py   -0.2582  -0.0000  -0.2068   0.0000
   6 F_b :3d1-   0.0117   0.0000   0.0080  -0.0000
   7 F_b :3d1-   0.0895   0.0000   0.1867  -0.0000
   8 F_b :3d1-   0.5798   0.0000   1.1094   0.0000
   9 F_b :3d1-   0.5952  -0.0000   1.3992   0.0000
  10 F_b :4f3-  -0.0000   0.0098  -0.0000  -0.0627
  11 F_b :4f1-  -0.0226  -0.0000  -0.0078   0.0000
  12 F_b :4f3-  -0.0000  -0.1579  -0.0000   0.9513
  13 F_b :4f1-   0.1731  -0.0000   0.2983  -0.0000
  14 F_b :4f3-   0.0000  -0.0733   0.0000  -0.5768
  15 F_b :4f1-  -0.7260  -0.0000  -1.3365  -0.0000
  16 F_b :5g3-  -0.0000  -0.1145  -0.0000  -0.0253
  17 F_b :5g1-   0.0350   0.0000  -0.1104  -0.0000
  18 F_b :5g3-  -0.0000   0.8591  -0.0000   0.1901
  19 F_b :5g1-  -0.2455   0.0000   0.9615   0.0000

 Molecular orbitals for symmetry species 8  (Au )
 ------------------------------------------------

    Orbital         1        2        3        4        5        6        7
   1 F_b :3d2-  -0.0056   0.0357  -0.0185   0.0000   0.0181   0.0182  -0.0189
   2 F_b :3d2-   0.0521  -0.0499   0.0288   0.0000  -0.6517  -0.5323   0.5536
   3 F_b :3d2-  -0.1522   0.8666  -0.5000   0.0000   0.3210   0.5248  -0.8239
   4 F_b :3d2-   1.1197  -0.8489  -0.3430   0.0000  -0.4973   0.0835   0.0021
   5 F_b :4f2-  -0.0015   0.0114   0.0290   0.0000   0.0266  -0.0486  -0.0138
   6 F_b :4f2-   0.0140  -0.0761  -0.1889   0.0000  -0.4054   0.8643   0.3330
   7 F_b :4f2-  -0.0678   0.4929   1.2832   0.0000   0.7108  -0.7837   0.5387
   8 F_b :5g4-   0.0000   0.0000   0.0000  -0.1141   0.0000   0.0000   0.0000
   9 F_b :5g2-  -0.0036   0.0106   0.0046   0.0000   0.0818  -0.0119   0.1138
  10 F_b :5g4-   0.0000   0.0000   0.0000   0.7792   0.0000   0.0000   0.0000
  11 F_b :5g2-   0.0161  -0.0516  -0.0303   0.0000  -0.6457   0.1136  -1.0132

    Orbital         8        9       10
   1 F_b :3d2-   0.0000  -0.0481   0.0401
   2 F_b :3d2-   0.0000  -0.0245  -0.0292
   3 F_b :3d2-   0.0000   0.2081   0.0094
   4 F_b :3d2-   0.0000   0.1282   0.1077
   5 F_b :4f2-   0.0000   0.0144  -0.8648
   6 F_b :4f2-   0.0000  -0.0125   0.6042
   7 F_b :4f2-   0.0000  -0.3596  -0.3226
   8 F_b :5g4-  -0.8453   0.0000   0.0000
   9 F_b :5g2-   0.0000  -0.8903  -0.0074
  10 F_b :5g4-   0.3852   0.0000   0.0000
  11 F_b :5g2-   0.0000   0.6495  -0.0348

  Total CPU  time used in SIRIUS :   3.93 seconds
  Total wall time used in SIRIUS :   3.94 seconds

 
     Date and time (Linux)  : Wed Jan 11 14:14:35 2023
     Host name              : cn040                                   


                     .---------------------------------------.
                     | End of Wave Function Section (SIRIUS) |
                     `---------------------------------------'



                 .------------------------------------------------.
                 | Starting in Dynamic Property Section (RESPONS) |
                 `------------------------------------------------'


 ----------------------------------------------------------------------------------------
  RESPONSE  -  an MCSCF, MC-srDFT, DFT, SOPPA and SOPPA-srDFT response property program
 ----------------------------------------------------------------------------------------


 -------- OUTPUT FROM RESPONSE INPUT PROCESSING --------




 Linear Response calculation
 ---------------------------

 Print level                                    : IPRLR  =   2
 Maximum number of iterations                   : MAXITL =  60
 Threshold for relative convergence             : THCLR  = 1.000D-03
 Maximum iterations in optimal orbital algorithm: MAXITO =   5

  9 B-frequencies  0.000000D+00  1.101744D-02  2.203487D-02  3.305231D-02  4.406975D-02
  5.508719D-02  6.610463D-02  7.712206D-02  8.813950D-02

    1 second order properties calculated with symmetry no.    2 and labels:

          XDIPLEN 

    1 second order properties calculated with symmetry no.    3 and labels:

          YDIPLEN 

    1 second order properties calculated with symmetry no.    5 and labels:

          ZDIPLEN 


   SCF energy         :     -198.768991393394202
 -- inactive part     :     -229.126990913662866
 -- nuclear repulsion :       30.357999520268653


                     ***************************************
                     *** RHF response calculation (TDHF) ***
                     ***************************************

 ----------------------------------------------------------------
 ----- Linear response calculation
 ----- Symmetry of excitation/property operator(s)    2  ( B3u)
 ----------------------------------------------------------------

 Number of excitations of this symmetry            0
 Number of response properties of this symmetry    1
 Number of C6/C8 properties of this symmetry       0


 Perturbation symmetry.     KSYMOP:           2
 Perturbation spin symmetry.TRPLET:           F
 Orbital variables.         KZWOPT:         169
 Configuration variables.   KZCONF:           0
 Total number of variables. KZVAR :         169


 RSPLR -- linear response calculation for symmetry 2  ( B3u)
 RSPLR -- operator label : XDIPLEN 
 RSPLR -- operator spin  :   0
 RSPLR -- frequencies    :     0.000000  0.011017  0.022035  0.033052  0.044070
                               0.055087  0.066105  0.077122  0.088139



 ---  SOLVING SETS OF LINEAR EQUATIONS FOR LINEAR RESPONSE PROPERTIES ---

 Operator symmetry = 2  ( B3u); triplet =   F

RSPORT:    2 out of    9 new trial vectors linear dependent

 ** RSPCTL MICROITERATION NUMBER    1

       No.  Residual tot.,    conf., and orb.    Bnorm      Frequency 
      ----------------------------------------------------------------
         1    6.36108D-01  0.00D+00  6.36D-01  1.52D+00    0.00000D+00
         2    6.36208D-01  0.00D+00  6.36D-01  1.52D+00    1.10174D-02
         3    6.36508D-01  0.00D+00  6.37D-01  1.52D+00    2.20349D-02
         4    6.37011D-01  0.00D+00  6.37D-01  1.52D+00    3.30523D-02
         5    6.37723D-01  0.00D+00  6.38D-01  1.53D+00    4.40697D-02
         6    6.38651D-01  0.00D+00  6.39D-01  1.53D+00    5.50872D-02
         7    6.39807D-01  0.00D+00  6.40D-01  1.53D+00    6.61046D-02
         8    6.41207D-01  0.00D+00  6.41D-01  1.54D+00    7.71221D-02
         9    6.42870D-01  0.00D+00  6.43D-01  1.54D+00    8.81395D-02

 ** RSPCTL MICROITERATION NUMBER    2

       No.  Residual tot.,    conf., and orb.    Bnorm      Frequency 
      ----------------------------------------------------------------
         1    4.82706D-02  0.00D+00  4.83D-02  1.55D+00    0.00000D+00
         2    4.82820D-02  0.00D+00  4.83D-02  1.55D+00    1.10174D-02
         3    4.83168D-02  0.00D+00  4.83D-02  1.55D+00    2.20349D-02
         4    4.83765D-02  0.00D+00  4.84D-02  1.55D+00    3.30523D-02
         5    4.84642D-02  0.00D+00  4.85D-02  1.56D+00    4.40697D-02
         6    4.85850D-02  0.00D+00  4.86D-02  1.56D+00    5.50872D-02
         7    4.87469D-02  0.00D+00  4.87D-02  1.57D+00    6.61046D-02
         8    4.89637D-02  0.00D+00  4.90D-02  1.57D+00    7.71221D-02
         9    4.92583D-02  0.00D+00  4.93D-02  1.58D+00    8.81395D-02

 ** RSPCTL MICROITERATION NUMBER    3

       No.  Residual tot.,    conf., and orb.    Bnorm      Frequency 
      ----------------------------------------------------------------
         1    3.11837D-03  0.00D+00  3.12D-03  1.55D+00    0.00000D+00
         2    3.12242D-03  0.00D+00  3.12D-03  1.55D+00    1.10174D-02
         3    3.13472D-03  0.00D+00  3.13D-03  1.55D+00    2.20349D-02
         4    3.15576D-03  0.00D+00  3.16D-03  1.55D+00    3.30523D-02
         5    3.18641D-03  0.00D+00  3.19D-03  1.56D+00    4.40697D-02
         6    3.22811D-03  0.00D+00  3.23D-03  1.56D+00    5.50872D-02
         7    3.28307D-03  0.00D+00  3.28D-03  1.57D+00    6.61046D-02
         8    3.35477D-03  0.00D+00  3.35D-03  1.57D+00    7.71221D-02
         9    3.44877D-03  0.00D+00  3.45D-03  1.58D+00    8.81395D-02

 ** RSPCTL MICROITERATION NUMBER    4

       No.  Residual tot.,    conf., and orb.    Bnorm      Frequency 
      ----------------------------------------------------------------
         1    1.77292D-04  0.00D+00  1.77D-04  1.55D+00    0.00000D+00
         2    1.77523D-04  0.00D+00  1.78D-04  1.55D+00    1.10174D-02
         3    1.78222D-04  0.00D+00  1.78D-04  1.55D+00    2.20349D-02
         4    1.79413D-04  0.00D+00  1.79D-04  1.55D+00    3.30523D-02
         5    1.81136D-04  0.00D+00  1.81D-04  1.56D+00    4.40697D-02
         6    1.83457D-04  0.00D+00  1.83D-04  1.56D+00    5.50872D-02
         7    1.86480D-04  0.00D+00  1.86D-04  1.57D+00    6.61046D-02
         8    1.90371D-04  0.00D+00  1.90D-04  1.57D+00    7.71221D-02
         9    1.95400D-04  0.00D+00  1.95D-04  1.58D+00    8.81395D-02

 *** THE REQUESTED    9 SOLUTION VECTORS CONVERGED

 Convergence of RSP solution vectors, threshold = 1.00D-03
 ---------------------------------------------------------------
 (dimension of paired reduced space:   68)
 RSP solution vector no.    1; norm of residual   1.14D-04
 RSP solution vector no.    2; norm of residual   1.15D-04
 RSP solution vector no.    3; norm of residual   1.15D-04
 RSP solution vector no.    4; norm of residual   1.16D-04
 RSP solution vector no.    5; norm of residual   1.16D-04
 RSP solution vector no.    6; norm of residual   1.18D-04
 RSP solution vector no.    7; norm of residual   1.19D-04
 RSP solution vector no.    8; norm of residual   1.21D-04
 RSP solution vector no.    9; norm of residual   1.24D-04

 *** RSPCTL MICROITERATIONS CONVERGED


           Final output of second order properties from linear response
           ------------------------------------------------------------


@ Spin symmetry of operators: singlet

 Note that minus the linear response function: - << A; B >>(omega) is printed.
 The results are of quadratic accuracy using Sellers formula.

@ FREQUENCY INDEPENDENT SECOND ORDER PROPERTIES

@ -<< XDIPLEN  ; XDIPLEN  >> =  5.545537194997E+00

@ FREQUENCY DEPENDENT SECOND ORDER PROPERTIES WITH FREQUENCY :

@    a.u.:  1.1017437D-02
@    cm-1:  2.4180480D+03
@    eV  :  2.9979972D-01
@  kJ/mol:  2.8926278D+01
@    nm  :  4.1355672D+03

@ -<< XDIPLEN  ; XDIPLEN  >> =  5.546237554148E+00

@ FREQUENCY DEPENDENT SECOND ORDER PROPERTIES WITH FREQUENCY :

@    a.u.:  2.2034875D-02
@    cm-1:  4.8360960D+03
@    eV  :  5.9959945D-01
@  kJ/mol:  5.7852555D+01
@    nm  :  2.0677836D+03

@ -<< XDIPLEN  ; XDIPLEN  >> =  5.548340952839E+00

@ FREQUENCY DEPENDENT SECOND ORDER PROPERTIES WITH FREQUENCY :

@    a.u.:  3.3052313D-02
@    cm-1:  7.2541440D+03
@    eV  :  8.9939917D-01
@  kJ/mol:  8.6778833D+01
@    nm  :  1.3785224D+03

@ -<< XDIPLEN  ; XDIPLEN  >> =  5.551854453184E+00

@ FREQUENCY DEPENDENT SECOND ORDER PROPERTIES WITH FREQUENCY :

@    a.u.:  4.4069750D-02
@    cm-1:  9.6721920D+03
@    eV  :  1.1991989D+00
@  kJ/mol:  1.1570511D+02
@    nm  :  1.0338918D+03

@ -<< XDIPLEN  ; XDIPLEN  >> =  5.556790173625E+00

@ FREQUENCY DEPENDENT SECOND ORDER PROPERTIES WITH FREQUENCY :

@    a.u.:  5.5087187D-02
@    cm-1:  1.2090240D+04
@    eV  :  1.4989986D+00
@  kJ/mol:  1.4463139D+02
@    nm  :  8.2711344D+02

@ -<< XDIPLEN  ; XDIPLEN  >> =  5.563165889974E+00

@ FREQUENCY DEPENDENT SECOND ORDER PROPERTIES WITH FREQUENCY :

@    a.u.:  6.6104625D-02
@    cm-1:  1.4508288D+04
@    eV  :  1.7987983D+00
@  kJ/mol:  1.7355767D+02
@    nm  :  6.8926120D+02

@ -<< XDIPLEN  ; XDIPLEN  >> =  5.571006066868E+00

@ FREQUENCY DEPENDENT SECOND ORDER PROPERTIES WITH FREQUENCY :

@    a.u.:  7.7122062D-02
@    cm-1:  1.6926336D+04
@    eV  :  2.0985981D+00
@  kJ/mol:  2.0248394D+02
@    nm  :  5.9079531D+02

@ -<< XDIPLEN  ; XDIPLEN  >> =  5.580343607100E+00

@ FREQUENCY DEPENDENT SECOND ORDER PROPERTIES WITH FREQUENCY :

@    a.u.:  8.8139500D-02
@    cm-1:  1.9344384D+04
@    eV  :  2.3983978D+00
@  kJ/mol:  2.3141022D+02
@    nm  :  5.1694590D+02

@ -<< XDIPLEN  ; XDIPLEN  >> =  5.591222902110E+00


 Time used in linear response calculation is      4.13 CPU seconds for symmetry 2
 ----------------------------------------------------------------
 ----- Linear response calculation
 ----- Symmetry of excitation/property operator(s)    3  ( B2u)
 ----------------------------------------------------------------

 Number of excitations of this symmetry            0
 Number of response properties of this symmetry    1
 Number of C6/C8 properties of this symmetry       0


 Perturbation symmetry.     KSYMOP:           3
 Perturbation spin symmetry.TRPLET:           F
 Orbital variables.         KZWOPT:         169
 Configuration variables.   KZCONF:           0
 Total number of variables. KZVAR :         169


 RSPLR -- linear response calculation for symmetry 3  ( B2u)
 RSPLR -- operator label : YDIPLEN 
 RSPLR -- operator spin  :   0
 RSPLR -- frequencies    :     0.000000  0.011017  0.022035  0.033052  0.044070
                               0.055087  0.066105  0.077122  0.088139



 ---  SOLVING SETS OF LINEAR EQUATIONS FOR LINEAR RESPONSE PROPERTIES ---

 Operator symmetry = 3  ( B2u); triplet =   F

RSPORT:    2 out of    9 new trial vectors linear dependent

 ** RSPCTL MICROITERATION NUMBER    1

       No.  Residual tot.,    conf., and orb.    Bnorm      Frequency 
      ----------------------------------------------------------------
         1    6.71723D-01  0.00D+00  6.72D-01  1.51D+00    0.00000D+00
         2    6.71811D-01  0.00D+00  6.72D-01  1.51D+00    1.10174D-02
         3    6.72072D-01  0.00D+00  6.72D-01  1.51D+00    2.20349D-02
         4    6.72510D-01  0.00D+00  6.73D-01  1.52D+00    3.30523D-02
         5    6.73125D-01  0.00D+00  6.73D-01  1.52D+00    4.40697D-02
         6    6.73921D-01  0.00D+00  6.74D-01  1.52D+00    5.50872D-02
         7    6.74901D-01  0.00D+00  6.75D-01  1.53D+00    6.61046D-02
         8    6.76071D-01  0.00D+00  6.76D-01  1.53D+00    7.71221D-02
         9    6.77436D-01  0.00D+00  6.77D-01  1.54D+00    8.81395D-02

 ** RSPCTL MICROITERATION NUMBER    2

       No.  Residual tot.,    conf., and orb.    Bnorm      Frequency 
      ----------------------------------------------------------------
         1    5.38369D-02  0.00D+00  5.38D-02  1.55D+00    0.00000D+00
         2    5.38476D-02  0.00D+00  5.38D-02  1.55D+00    1.10174D-02
         3    5.38800D-02  0.00D+00  5.39D-02  1.55D+00    2.20349D-02
         4    5.39349D-02  0.00D+00  5.39D-02  1.55D+00    3.30523D-02
         5    5.40140D-02  0.00D+00  5.40D-02  1.56D+00    4.40697D-02
         6    5.41204D-02  0.00D+00  5.41D-02  1.56D+00    5.50872D-02
         7    5.42590D-02  0.00D+00  5.43D-02  1.57D+00    6.61046D-02
         8    5.44380D-02  0.00D+00  5.44D-02  1.57D+00    7.71221D-02
         9    5.46720D-02  0.00D+00  5.47D-02  1.58D+00    8.81395D-02

 ** RSPCTL MICROITERATION NUMBER    3

       No.  Residual tot.,    conf., and orb.    Bnorm      Frequency 
      ----------------------------------------------------------------
         1    2.33707D-03  0.00D+00  2.34D-03  1.55D+00    0.00000D+00
         2    2.33828D-03  0.00D+00  2.34D-03  1.55D+00    1.10174D-02
         3    2.34192D-03  0.00D+00  2.34D-03  1.55D+00    2.20349D-02
         4    2.34802D-03  0.00D+00  2.35D-03  1.55D+00    3.30523D-02
         5    2.35665D-03  0.00D+00  2.36D-03  1.56D+00    4.40697D-02
         6    2.36796D-03  0.00D+00  2.37D-03  1.56D+00    5.50872D-02
         7    2.38221D-03  0.00D+00  2.38D-03  1.57D+00    6.61046D-02
         8    2.39993D-03  0.00D+00  2.40D-03  1.57D+00    7.71221D-02
         9    2.42216D-03  0.00D+00  2.42D-03  1.58D+00    8.81395D-02

 ** RSPCTL MICROITERATION NUMBER    4

       No.  Residual tot.,    conf., and orb.    Bnorm      Frequency 
      ----------------------------------------------------------------
         1    1.23322D-04  0.00D+00  1.23D-04  1.55D+00    0.00000D+00
         2    1.23432D-04  0.00D+00  1.23D-04  1.55D+00    1.10174D-02
         3    1.23763D-04  0.00D+00  1.24D-04  1.55D+00    2.20349D-02
         4    1.24321D-04  0.00D+00  1.24D-04  1.55D+00    3.30523D-02
         5    1.25115D-04  0.00D+00  1.25D-04  1.56D+00    4.40697D-02
         6    1.26159D-04  0.00D+00  1.26D-04  1.56D+00    5.50872D-02
         7    1.27480D-04  0.00D+00  1.27D-04  1.57D+00    6.61046D-02
         8    1.29124D-04  0.00D+00  1.29D-04  1.57D+00    7.71221D-02
         9    1.31173D-04  0.00D+00  1.31D-04  1.58D+00    8.81395D-02

 *** THE REQUESTED    9 SOLUTION VECTORS CONVERGED

 Convergence of RSP solution vectors, threshold = 1.00D-03
 ---------------------------------------------------------------
 (dimension of paired reduced space:   68)
 RSP solution vector no.    1; norm of residual   7.96D-05
 RSP solution vector no.    2; norm of residual   7.97D-05
 RSP solution vector no.    3; norm of residual   7.98D-05
 RSP solution vector no.    4; norm of residual   8.01D-05
 RSP solution vector no.    5; norm of residual   8.04D-05
 RSP solution vector no.    6; norm of residual   8.09D-05
 RSP solution vector no.    7; norm of residual   8.14D-05
 RSP solution vector no.    8; norm of residual   8.22D-05
 RSP solution vector no.    9; norm of residual   8.31D-05

 *** RSPCTL MICROITERATIONS CONVERGED


           Final output of second order properties from linear response
           ------------------------------------------------------------


@ Spin symmetry of operators: singlet

 Note that minus the linear response function: - << A; B >>(omega) is printed.
 The results are of quadratic accuracy using Sellers formula.

@ FREQUENCY INDEPENDENT SECOND ORDER PROPERTIES

@ -<< YDIPLEN  ; YDIPLEN  >> =  5.545537195556E+00

@ FREQUENCY DEPENDENT SECOND ORDER PROPERTIES WITH FREQUENCY :

@    a.u.:  1.1017437D-02
@    cm-1:  2.4180480D+03
@    eV  :  2.9979972D-01
@  kJ/mol:  2.8926278D+01
@    nm  :  4.1355672D+03

@ -<< YDIPLEN  ; YDIPLEN  >> =  5.546237554709E+00

@ FREQUENCY DEPENDENT SECOND ORDER PROPERTIES WITH FREQUENCY :

@    a.u.:  2.2034875D-02
@    cm-1:  4.8360960D+03
@    eV  :  5.9959945D-01
@  kJ/mol:  5.7852555D+01
@    nm  :  2.0677836D+03

@ -<< YDIPLEN  ; YDIPLEN  >> =  5.548340953405E+00

@ FREQUENCY DEPENDENT SECOND ORDER PROPERTIES WITH FREQUENCY :

@    a.u.:  3.3052313D-02
@    cm-1:  7.2541440D+03
@    eV  :  8.9939917D-01
@  kJ/mol:  8.6778833D+01
@    nm  :  1.3785224D+03

@ -<< YDIPLEN  ; YDIPLEN  >> =  5.551854453758E+00

@ FREQUENCY DEPENDENT SECOND ORDER PROPERTIES WITH FREQUENCY :

@    a.u.:  4.4069750D-02
@    cm-1:  9.6721920D+03
@    eV  :  1.1991989D+00
@  kJ/mol:  1.1570511D+02
@    nm  :  1.0338918D+03

@ -<< YDIPLEN  ; YDIPLEN  >> =  5.556790174211E+00

@ FREQUENCY DEPENDENT SECOND ORDER PROPERTIES WITH FREQUENCY :

@    a.u.:  5.5087187D-02
@    cm-1:  1.2090240D+04
@    eV  :  1.4989986D+00
@  kJ/mol:  1.4463139D+02
@    nm  :  8.2711344D+02

@ -<< YDIPLEN  ; YDIPLEN  >> =  5.563165890577E+00

@ FREQUENCY DEPENDENT SECOND ORDER PROPERTIES WITH FREQUENCY :

@    a.u.:  6.6104625D-02
@    cm-1:  1.4508288D+04
@    eV  :  1.7987983D+00
@  kJ/mol:  1.7355767D+02
@    nm  :  6.8926120D+02

@ -<< YDIPLEN  ; YDIPLEN  >> =  5.571006067493E+00

@ FREQUENCY DEPENDENT SECOND ORDER PROPERTIES WITH FREQUENCY :

@    a.u.:  7.7122062D-02
@    cm-1:  1.6926336D+04
@    eV  :  2.0985981D+00
@  kJ/mol:  2.0248394D+02
@    nm  :  5.9079531D+02

@ -<< YDIPLEN  ; YDIPLEN  >> =  5.580343607753E+00

@ FREQUENCY DEPENDENT SECOND ORDER PROPERTIES WITH FREQUENCY :

@    a.u.:  8.8139500D-02
@    cm-1:  1.9344384D+04
@    eV  :  2.3983978D+00
@  kJ/mol:  2.3141022D+02
@    nm  :  5.1694590D+02

@ -<< YDIPLEN  ; YDIPLEN  >> =  5.591222902800E+00


 Time used in linear response calculation is      4.12 CPU seconds for symmetry 3
 ----------------------------------------------------------------
 ----- Linear response calculation
 ----- Symmetry of excitation/property operator(s)    5  ( B1u)
 ----------------------------------------------------------------

 Number of excitations of this symmetry            0
 Number of response properties of this symmetry    1
 Number of C6/C8 properties of this symmetry       0


 Perturbation symmetry.     KSYMOP:           5
 Perturbation spin symmetry.TRPLET:           F
 Orbital variables.         KZWOPT:         215
 Configuration variables.   KZCONF:           0
 Total number of variables. KZVAR :         215


 RSPLR -- linear response calculation for symmetry 5  ( B1u)
 RSPLR -- operator label : ZDIPLEN 
 RSPLR -- operator spin  :   0
 RSPLR -- frequencies    :     0.000000  0.011017  0.022035  0.033052  0.044070
                               0.055087  0.066105  0.077122  0.088139



 ---  SOLVING SETS OF LINEAR EQUATIONS FOR LINEAR RESPONSE PROPERTIES ---

 Operator symmetry = 5  ( B1u); triplet =   F

RSPORT:    2 out of    9 new trial vectors linear dependent

 ** RSPCTL MICROITERATION NUMBER    1

       No.  Residual tot.,    conf., and orb.    Bnorm      Frequency 
      ----------------------------------------------------------------
         1    3.72389D+00  0.00D+00  3.72D+00  2.41D+00    0.00000D+00
         2    3.72520D+00  0.00D+00  3.73D+00  2.41D+00    1.10174D-02
         3    3.72915D+00  0.00D+00  3.73D+00  2.42D+00    2.20349D-02
         4    3.73575D+00  0.00D+00  3.74D+00  2.43D+00    3.30523D-02
         5    3.74502D+00  0.00D+00  3.75D+00  2.44D+00    4.40697D-02
         6    3.75702D+00  0.00D+00  3.76D+00  2.45D+00    5.50872D-02
         7    3.77178D+00  0.00D+00  3.77D+00  2.47D+00    6.61046D-02
         8    3.78939D+00  0.00D+00  3.79D+00  2.49D+00    7.71221D-02
         9    3.80991D+00  0.00D+00  3.81D+00  2.51D+00    8.81395D-02

 ** RSPCTL MICROITERATION NUMBER    2

       No.  Residual tot.,    conf., and orb.    Bnorm      Frequency 
      ----------------------------------------------------------------
         1    9.85015D-01  0.00D+00  9.85D-01  3.36D+00    0.00000D+00
         2    9.85596D-01  0.00D+00  9.86D-01  3.36D+00    1.10174D-02
         3    9.87340D-01  0.00D+00  9.87D-01  3.37D+00    2.20349D-02
         4    9.90261D-01  0.00D+00  9.90D-01  3.38D+00    3.30523D-02
         5    9.94377D-01  0.00D+00  9.94D-01  3.40D+00    4.40697D-02
         6    9.99717D-01  0.00D+00  1.00D+00  3.42D+00    5.50872D-02
         7    1.00632D+00  0.00D+00  1.01D+00  3.45D+00    6.61046D-02
         8    1.01422D+00  0.00D+00  1.01D+00  3.49D+00    7.71221D-02
         9    1.02348D+00  0.00D+00  1.02D+00  3.53D+00    8.81395D-02

 ** RSPCTL MICROITERATION NUMBER    3

       No.  Residual tot.,    conf., and orb.    Bnorm      Frequency 
      ----------------------------------------------------------------
         1    1.31595D-01  0.00D+00  1.32D-01  3.42D+00    0.00000D+00
         2    1.31690D-01  0.00D+00  1.32D-01  3.42D+00    1.10174D-02
         3    1.31975D-01  0.00D+00  1.32D-01  3.43D+00    2.20349D-02
         4    1.32453D-01  0.00D+00  1.32D-01  3.44D+00    3.30523D-02
         5    1.33126D-01  0.00D+00  1.33D-01  3.46D+00    4.40697D-02
         6    1.34000D-01  0.00D+00  1.34D-01  3.48D+00    5.50872D-02
         7    1.35082D-01  0.00D+00  1.35D-01  3.52D+00    6.61046D-02
         8    1.36378D-01  0.00D+00  1.36D-01  3.55D+00    7.71221D-02
         9    1.37899D-01  0.00D+00  1.38D-01  3.60D+00    8.81395D-02
RSPORT:    1 out of    9 new trial vectors linear dependent

 ** RSPCTL MICROITERATION NUMBER    4

       No.  Residual tot.,    conf., and orb.    Bnorm      Frequency 
      ----------------------------------------------------------------
         1    6.54232D-03  0.00D+00  6.54D-03  3.42D+00    0.00000D+00
         2    6.54743D-03  0.00D+00  6.55D-03  3.42D+00    1.10174D-02
         3    6.56281D-03  0.00D+00  6.56D-03  3.43D+00    2.20349D-02
         4    6.58858D-03  0.00D+00  6.59D-03  3.44D+00    3.30523D-02
         5    6.62491D-03  0.00D+00  6.62D-03  3.46D+00    4.40697D-02
         6    6.67210D-03  0.00D+00  6.67D-03  3.49D+00    5.50872D-02
         7    6.73049D-03  0.00D+00  6.73D-03  3.52D+00    6.61046D-02
         8    6.80054D-03  0.00D+00  6.80D-03  3.55D+00    7.71221D-02
         9    6.88280D-03  0.00D+00  6.88D-03  3.60D+00    8.81395D-02
RSPORT:    1 out of    9 new trial vectors linear dependent

 ** RSPCTL MICROITERATION NUMBER    5

       No.  Residual tot.,    conf., and orb.    Bnorm      Frequency 
      ----------------------------------------------------------------
         1    3.66662D-04  0.00D+00  3.67D-04  3.42D+00    0.00000D+00
         2    3.67012D-04  0.00D+00  3.67D-04  3.42D+00    1.10174D-02
         3    3.68067D-04  0.00D+00  3.68D-04  3.43D+00    2.20349D-02
         4    3.69834D-04  0.00D+00  3.70D-04  3.44D+00    3.30523D-02
         5    3.72328D-04  0.00D+00  3.72D-04  3.46D+00    4.40697D-02
         6    3.75569D-04  0.00D+00  3.76D-04  3.49D+00    5.50872D-02
         7    3.79584D-04  0.00D+00  3.80D-04  3.52D+00    6.61046D-02
         8    3.84405D-04  0.00D+00  3.84D-04  3.55D+00    7.71221D-02
         9    3.90075D-04  0.00D+00  3.90D-04  3.60D+00    8.81395D-02

 *** THE REQUESTED    9 SOLUTION VECTORS CONVERGED

 Convergence of RSP solution vectors, threshold = 1.00D-03
 ---------------------------------------------------------------
 (dimension of paired reduced space:   82)
 RSP solution vector no.    1; norm of residual   1.07D-04
 RSP solution vector no.    2; norm of residual   1.07D-04
 RSP solution vector no.    3; norm of residual   1.07D-04
 RSP solution vector no.    4; norm of residual   1.07D-04
 RSP solution vector no.    5; norm of residual   1.08D-04
 RSP solution vector no.    6; norm of residual   1.08D-04
 RSP solution vector no.    7; norm of residual   1.08D-04
 RSP solution vector no.    8; norm of residual   1.08D-04
 RSP solution vector no.    9; norm of residual   1.08D-04

 *** RSPCTL MICROITERATIONS CONVERGED


           Final output of second order properties from linear response
           ------------------------------------------------------------


@ Spin symmetry of operators: singlet

 Note that minus the linear response function: - << A; B >>(omega) is printed.
 The results are of quadratic accuracy using Sellers formula.

@ FREQUENCY INDEPENDENT SECOND ORDER PROPERTIES

@ -<< ZDIPLEN  ; ZDIPLEN  >> =  1.460057380382E+01

@ FREQUENCY DEPENDENT SECOND ORDER PROPERTIES WITH FREQUENCY :

@    a.u.:  1.1017437D-02
@    cm-1:  2.4180480D+03
@    eV  :  2.9979972D-01
@  kJ/mol:  2.8926278D+01
@    nm  :  4.1355672D+03

@ -<< ZDIPLEN  ; ZDIPLEN  >> =  1.460664605847E+01

@ FREQUENCY DEPENDENT SECOND ORDER PROPERTIES WITH FREQUENCY :

@    a.u.:  2.2034875D-02
@    cm-1:  4.8360960D+03
@    eV  :  5.9959945D-01
@  kJ/mol:  5.7852555D+01
@    nm  :  2.0677836D+03

@ -<< ZDIPLEN  ; ZDIPLEN  >> =  1.462490079647E+01

@ FREQUENCY DEPENDENT SECOND ORDER PROPERTIES WITH FREQUENCY :

@    a.u.:  3.3052313D-02
@    cm-1:  7.2541440D+03
@    eV  :  8.9939917D-01
@  kJ/mol:  8.6778833D+01
@    nm  :  1.3785224D+03

@ -<< ZDIPLEN  ; ZDIPLEN  >> =  1.465545256066E+01

@ FREQUENCY DEPENDENT SECOND ORDER PROPERTIES WITH FREQUENCY :

@    a.u.:  4.4069750D-02
@    cm-1:  9.6721920D+03
@    eV  :  1.1991989D+00
@  kJ/mol:  1.1570511D+02
@    nm  :  1.0338918D+03

@ -<< ZDIPLEN  ; ZDIPLEN  >> =  1.469849434388E+01

@ FREQUENCY DEPENDENT SECOND ORDER PROPERTIES WITH FREQUENCY :

@    a.u.:  5.5087187D-02
@    cm-1:  1.2090240D+04
@    eV  :  1.4989986D+00
@  kJ/mol:  1.4463139D+02
@    nm  :  8.2711344D+02

@ -<< ZDIPLEN  ; ZDIPLEN  >> =  1.475430078935E+01

@ FREQUENCY DEPENDENT SECOND ORDER PROPERTIES WITH FREQUENCY :

@    a.u.:  6.6104625D-02
@    cm-1:  1.4508288D+04
@    eV  :  1.7987983D+00
@  kJ/mol:  1.7355767D+02
@    nm  :  6.8926120D+02

@ -<< ZDIPLEN  ; ZDIPLEN  >> =  1.482323281090E+01

@ FREQUENCY DEPENDENT SECOND ORDER PROPERTIES WITH FREQUENCY :

@    a.u.:  7.7122062D-02
@    cm-1:  1.6926336D+04
@    eV  :  2.0985981D+00
@  kJ/mol:  2.0248394D+02
@    nm  :  5.9079531D+02

@ -<< ZDIPLEN  ; ZDIPLEN  >> =  1.490574378160E+01

@ FREQUENCY DEPENDENT SECOND ORDER PROPERTIES WITH FREQUENCY :

@    a.u.:  8.8139500D-02
@    cm-1:  1.9344384D+04
@    eV  :  2.3983978D+00
@  kJ/mol:  2.3141022D+02
@    nm  :  5.1694590D+02

@ -<< ZDIPLEN  ; ZDIPLEN  >> =  1.500238749418E+01


 Time used in linear response calculation is      5.02 CPU seconds for symmetry 5

  Total CPU  time used in RESPONSE:  13.26 seconds
  Total wall time used in RESPONSE:  13.28 seconds


                   .-------------------------------------------.
                   | End of Dynamic Property Section (RESPONS) |
                   `-------------------------------------------'

  Total CPU  time used in DALTON:  17.39 seconds
  Total wall time used in DALTON:  17.43 seconds

 
     Date and time (Linux)  : Wed Jan 11 14:14:48 2023
     Host name              : cn040                                   
