

     ************************************************************************
     *************** Dalton - An Electronic Structure Program ***************
     ************************************************************************

    This is output from DALTON release Dalton2020.0 (2020)
         ( Web site: http://daltonprogram.org )

   ----------------------------------------------------------------------------

    NOTE:
     
    Dalton is an experimental code for the evaluation of molecular
    properties using (MC)SCF, DFT, CI, and CC wave functions.
    The authors accept no responsibility for the performance of
    the code or for the correctness of the results.
     
    The code (in whole or part) is provided under a licence and
    is not to be reproduced for further distribution without
    the written permission of the authors or their representatives.
     
    See the home page "http://daltonprogram.org" for further information.
     
    If results obtained with this code are published,
    the appropriate citations would be both of:
     
       K. Aidas, C. Angeli, K. L. Bak, V. Bakken, R. Bast,
       L. Boman, O. Christiansen, R. Cimiraglia, S. Coriani,
       P. Dahle, E. K. Dalskov, U. Ekstroem,
       T. Enevoldsen, J. J. Eriksen, P. Ettenhuber, B. Fernandez,
       L. Ferrighi, H. Fliegl, L. Frediani, K. Hald, A. Halkier,
       C. Haettig, H. Heiberg, T. Helgaker, A. C. Hennum,
       H. Hettema, E. Hjertenaes, S. Hoest, I.-M. Hoeyvik,
       M. F. Iozzi, B. Jansik, H. J. Aa. Jensen, D. Jonsson,
       P. Joergensen, J. Kauczor, S. Kirpekar,
       T. Kjaergaard, W. Klopper, S. Knecht, R. Kobayashi, H. Koch,
       J. Kongsted, A. Krapp, K. Kristensen, A. Ligabue,
       O. B. Lutnaes, J. I. Melo, K. V. Mikkelsen, R. H. Myhre,
       C. Neiss, C. B. Nielsen, P. Norman, J. Olsen,
       J. M. H. Olsen, A. Osted, M. J. Packer, F. Pawlowski,
       T. B. Pedersen, P. F. Provasi, S. Reine, Z. Rinkevicius,
       T. A. Ruden, K. Ruud, V. Rybkin, P. Salek, C. C. M. Samson,
       A. Sanchez de Meras, T. Saue, S. P. A. Sauer,
       B. Schimmelpfennig, K. Sneskov, A. H. Steindal,
       K. O. Sylvester-Hvid, P. R. Taylor, A. M. Teale,
       E. I. Tellgren, D. P. Tew, A. J. Thorvaldsen, L. Thoegersen,
       O. Vahtras, M. A. Watson, D. J. D. Wilson, M. Ziolkowski
       and H. Agren,
       "The Dalton quantum chemistry program system",
       WIREs Comput. Mol. Sci. 2014, 4:269–284 (doi: 10.1002/wcms.1172)
     
    and
     
       Dalton, a molecular electronic structure program,
       Release Dalton2020.0 (2020), see http://daltonprogram.org
   ----------------------------------------------------------------------------

    Authors in alphabetical order (Major contribution(s) in parenthesis):

  Kestutis Aidas,           Vilnius University,           Lithuania   (QM/MM)
  Celestino Angeli,         University of Ferrara,        Italy       (NEVPT2)
  Keld L. Bak,              UNI-C,                        Denmark     (AOSOPPA, non-adiabatic coupling, magnetic properties)
  Vebjoern Bakken,          University of Oslo,           Norway      (DALTON; geometry optimizer, symmetry detection)
  Radovan Bast,             UiT The Arctic U. of Norway,  Norway      (DALTON installation and execution frameworks)
  Pablo Baudin,             University of Valencia,       Spain       (Cholesky excitation energies)
  Linus Boman,              NTNU,                         Norway      (Cholesky decomposition and subsystems)
  Bruno N. Cabral Tenorio,  Technical Univ. of Denmark,   Denmark     (Lanczos-based CC methods)
  Ove Christiansen,         Aarhus University,            Denmark     (CC module)
  Renzo Cimiraglia,         University of Ferrara,        Italy       (NEVPT2)
  Sonia Coriani,            Technical Univ. of Denmark,   Denmark     (CC and RESPONS modules)
  Janusz Cukras,            University of Warsaw,         Poland      (MChD in RESPONS)
  Paal Dahle,               University of Oslo,           Norway      (Parallelization)
  Erik K. Dalskov,          UNI-C,                        Denmark     (SOPPA)
  Thomas Enevoldsen,        Univ. of Southern Denmark,    Denmark     (SOPPA)
  Janus J. Eriksen,         Aarhus University,            Denmark     (Polarizable embedding, TDA)
  Rasmus Faber,             Technical Univ. of Denmark,   Denmark     (Vib.avg. NMR w. SOPPA, parallel AO-SOPPA, CVS-CC and EOMCC)
  Tobias Fahleson,          KTH Stockholm,                Sweden      (Damped cubic response)
  Berta Fernandez,          U. of Santiago de Compostela, Spain       (Doublet spin, ESR in RESPONS)
  Lara Ferrighi,            Aarhus University,            Denmark     (PCM Cubic response)
  Heike Fliegl,             University of Oslo,           Norway      (CCSD(R12))
  Luca Frediani,            UiT The Arctic U. of Norway,  Norway      (PCM)
  Emmanuel Fromager,        Univ. Strasbourg,             France      (MC-srDFT)
  Bin Gao,                  UiT The Arctic U. of Norway,  Norway      (Gen1Int library)
  Andre S. P. Gomes,        CNRS/Universite de Lille,     France      (Frozen density embedding)
  Christof Haettig,         Ruhr-University Bochum,       Germany     (CC module)
  Kasper Hald,              Aarhus University,            Denmark     (CC module)
  Asger Halkier,            Aarhus University,            Denmark     (CC module)
  Frederik Beyer Hansen,    University of Copenhagen,     Denmark     (Parallel AO-SOPPA)
  Erik D. Hedegaard,        Univ. of Southern Denmark,    Denmark     (Polarizable embedding, QM/MM, and MC-srDFT)
  Hanne Heiberg,            University of Oslo,           Norway      (Geometry analysis, selected one-electron integrals)
  Trygve Helgaker,          University of Oslo,           Norway      (DALTON; ABACUS, ERI, DFT modules, London, and much more)
  Alf Christian Hennum,     University of Oslo,           Norway      (Parity violation)
  Hinne Hettema,            University of Auckland,       New Zealand (Quadratic response in RESPONS; SIRIUS supersymmetry)
  Eirik Hjertenaes,         NTNU,                         Norway      (Cholesky decomposition)
  Pi A. B. Haase,           University of Copenhagen,     Denmark     (Triplet AO-SOPPA)
  Maria Francesca Iozzi,    University of Oslo,           Norway      (RPA)
  Christoph Jacob           TU Braunschweig               Germany     (Frozen density embedding)
  Brano Jansik              Technical Univ. of Ostrava    Czech Rep.  (DFT cubic response)
  Hans Joergen Aa. Jensen,  Univ. of Southern Denmark,    Denmark     (DALTON; SIRIUS, RESPONS, ABACUS, MC-srDFT, and much more)
  Dan Jonsson,              UiT The Arctic U. of Norway,  Norway      (Cubic response in RESPONS module)
  Poul Joergensen,          Aarhus University,            Denmark     (RESPONS, ABACUS, and CC modules)
  Maciej Kaminski,          University of Warsaw,         Poland      (CPPh in RESPONS)
  Joanna Kauczor,           Linkoeping University,        Sweden      (Complex polarization propagator (CPP) module)
  Sheela Kirpekar,          Univ. of Southern Denmark,    Denmark     (Mass-velocity & Darwin integrals)
  Erik Kjellgren,           Univ. of Southern Denmark,    Denmark     (MC-srDFT)
  Wim Klopper,              KIT Karlsruhe,                Germany     (R12 code in CC, SIRIUS, and ABACUS modules)
  Stefan Knecht,            ETH Zurich,                   Switzerland (Parallel CI and MCSCF, MC-srDFT)
  Rika Kobayashi,           Australian National Univ.,    Australia   (DIIS in CC, London in MCSCF)
  Henrik Koch,              NTNU,                         Norway      (CC module, Cholesky decomposition)
  Jacob Kongsted,           Univ. of Southern Denmark,    Denmark     (Polarizable embedding, polarizable density embedding, QM/MM)
  Andrea Ligabue,           University of Modena,         Italy       (CTOCD, AOSOPPA)
  Nanna H. List             Univ. of Southern Denmark,    Denmark     (Polarizable embedding)
  Ola B. Lutnaes,           University of Oslo,           Norway      (DFT Hessian)
  Juan I. Melo,             University of Buenos Aires,   Argentina   (LRESC, Relativistic Effects on NMR Shieldings)
  Kurt V. Mikkelsen,        University of Copenhagen,     Denmark     (MC-SCRF and QM/MM)
  Rolf H. Myhre,            NTNU,                         Norway      (Subsystems and CC3)
  Christian Neiss,          Univ. Erlangen-Nuernberg,     Germany     (CCSD(R12))
  Christian B. Nielsen,     University of Copenhagen,     Denmark     (QM/MM)
  Patrick Norman,           KTH Stockholm,                Sweden      (Cubic response and complex frequency response in RESPONS)
  Jeppe Olsen,              Aarhus University,            Denmark     (SIRIUS CI/density modules)
  Jogvan Magnus H. Olsen,   Aarhus University,            Denmark     (Polarizable embedding and polarizable density embedding)
  Anders Osted,             Copenhagen University,        Denmark     (QM/MM)
  Martin J. Packer,         University of Sheffield,      UK          (SOPPA)
  Filip Pawlowski,          Kazimierz Wielki University,  Poland      (CC3)
  Morten N. Pedersen,       Univ. of Southern Denmark,    Denmark     (Polarizable embedding)
  Thomas B. Pedersen,       University of Oslo,           Norway      (Cholesky decomposition)
  Patricio F. Provasi,      University of Northeastern,   Argentina   (Analysis of coupling constants in localized orbitals)
  Peter Reinholdt,          Univ. of Southern Denmark,    Denmark     (Polarizable embedding and polarizable density embedding)
  Zilvinas Rinkevicius,     KTH Stockholm,                Sweden      (open-shell DFT, ESR)
  Elias Rudberg,            KTH Stockholm,                Sweden      (DFT grid and basis info)
  Torgeir A. Ruden,         University of Oslo,           Norway      (Numerical derivatives in ABACUS)
  Kenneth Ruud,             UiT The Arctic U. of Norway,  Norway      (DALTON; ABACUS magnetic properties and much more)
  Pawel Salek,              KTH Stockholm,                Sweden      (DALTON; DFT code)
  Claire C. M. Samson       University of Karlsruhe       Germany     (Boys localization, r12 integrals in ERI)
  Alfredo Sanchez de Meras, University of Valencia,       Spain       (CC module, Cholesky decomposition)
  Trond Saue,               Paul Sabatier University,     France      (direct Fock matrix construction)
  Stephan P. A. Sauer,      University of Copenhagen,     Denmark     (SOPPA(CCSD), SOPPA prop., AOSOPPA, vibrational g-factors)
  Bernd Schimmelpfennig,    Forschungszentrum Karlsruhe,  Germany     (AMFI module)
  Anna K. Schnack-Petersen, University of Copenhagen,     Denmark     (RPA(D) and HRPA(D) properties in AOSOPPA)
  Kristian Sneskov,         Aarhus University,            Denmark     (Polarizable embedding, QM/MM)
  Arnfinn H. Steindal,      UiT The Arctic U. of Norway,  Norway      (parallel QM/MM, polarizable embedding)
  Casper Steinmann,         Aalborg University,           Denmark     (QFIT, polarizable embedding)
  K. O. Sylvester-Hvid,     University of Copenhagen,     Denmark     (MC-SCRF)
  Peter R. Taylor,          VLSCI/Univ. of Melbourne,     Australia   (Symmetry handling ABACUS, integral transformation)
  Andrew M. Teale,          University of Nottingham,     England     (DFT-AC, DFT-D)
  David P. Tew,             University of Bristol,        England     (CCSD(R12))
  Julien Toulouse,          Sorbonne Univ.,               France      (MC-srDFT)
  Olav Vahtras,             KTH Stockholm,                Sweden      (Triplet response, spin-orbit, ESR, TDDFT, open-shell DFT)
  Lucas Visscher,           Vrije Universiteit Amsterdam, Netherlands (Frozen density embedding)
  David J. Wilson,          La Trobe University,          Australia   (DFT Hessian and DFT magnetizabilities)
  Hans Agren,               KTH Stockholm,                Sweden      (SIRIUS module, RESPONS, MC-SCRF solvation)
 --------------------------------------------------------------------------------

     Date and time (Linux)  : Wed Jan 11 14:16:48 2023
     Host name              : cn040                                   

 * Work memory size             :    64000000 =  488.28 megabytes.

 * Directories for basis set searches:
   1) /gpfs/projects/rjh/adrian/fd_compare/dalton/hf/F2/dipole
   2) /gpfs/projects/rjh/adrian/dalton/build/basis


Compilation information
-----------------------

 Who compiled             | ahurtado
 Host                     | sn-mem
 System                   | Linux-3.10.0-1160.24.1.el7.x86_64
 CMake generator          | Unix Makefiles
 Processor                | x86_64
 64-bit integers          | OFF
 MPI                      | ON
 Fortran compiler         | /gpfs/software/intel/oneAPI/2021_4/mpi/2021.4.0/bi
                          | n/mpif90
 Fortran compiler version | GNU Fortran (GCC) 11.2.0
 C compiler               | /gpfs/software/intel/oneAPI/2021_4/mpi/2021.4.0/bi
                          | n/mpicc
 C compiler version       | gcc (GCC) 11.2.0
 C++ compiler             | /gpfs/software/intel/oneAPI/2021_4/mpi/2021.4.0/bi
                          | n/mpicxx
 C++ compiler version     | unknown
 BLAS                     | /gpfs/software/intel/oneAPI/2021_4/mkl/2021.4.0/li
                          | b/intel64/libmkl_gf_lp64.so;/gpfs/software/intel/o
                          | neAPI/2021_4/mkl/2021.4.0/lib/intel64/libmkl_seque
                          | ntial.so;/gpfs/software/intel/oneAPI/2021_4/mkl/20
                          | 21.4.0/lib/intel64/libmkl_core.so;/usr/lib64/libpt
                          | hread.so;/usr/lib64/libm.so
 LAPACK                   | /gpfs/software/intel/oneAPI/2021_4/mkl/2021.4.0/li
                          | b/intel64/libmkl_lapack95_lp64.a;/gpfs/software/in
                          | tel/oneAPI/2021_4/mkl/2021.4.0/lib/intel64/libmkl_
                          | gf_lp64.so
 Static linking           | OFF
 Last Git revision        | 66052b3af5ea7225e31178bf9a8b031913c72190
 Git branch               | (HEAD detached at Dalton2020.0)
 Configuration time       | 2023-01-11 13:33:37.731835

 * MPI parallel run using 20 processes.


   Content of the .dal input file
 ----------------------------------

**DALTON INPUT
.RUN RESPONSE
.DIRECT
**WAVE FUNCTIONS
.HF
**RESPONSE
*LINEAR
.DIPLEN
.FREQUENCIES
9
0.0 0.0110174375 0.022034875 0.0330523125 0.04406975 0.055087187499999996 0.066104625 0.077122062499
**END OF DALTON INPUT


   Content of the .mol file
 ----------------------------

BASIS
d-aug-cc-pVQZ
blah
blah
Atomtype=1 Atomic
Charge=9 Atoms=2
F_a 0.000000000000 0.000000000000 0.000000000000
F_b 0.000000000000 0.000000000000 2.668160000000


       *******************************************************************
       *********** Output from DALTON general input processing ***********
       *******************************************************************

 --------------------------------------------------------------------------------
   Overall default print level:    0
   Print level for DALTON.STAT:    1

    Parallel calculation using MPI
    AO-direct calculation (in sections where implemented)
    HERMIT 1- and 2-electron integral sections will be executed
    "Old" integral transformation used (limited to max 255 basis functions)
    Wave function sections will be executed (SIRIUS module)
    Dynamic molecular response properties section will be executed (RESPONSE module)
 --------------------------------------------------------------------------------


   ****************************************************************************
   *************** Output of molecule and basis set information ***************
   ****************************************************************************


    The two title cards from your ".mol" input:
    ------------------------------------------------------------------------
 1: blah                                                                    
 2: blah                                                                    
    ------------------------------------------------------------------------

  Atomic type no.    1
  --------------------
  Nuclear charge:   9.00000
  Number of symmetry independent centers:    2
  Number of basis sets to read;    2
  Basis set file used for this atomic type with Z =   9 :
     "/gpfs/projects/rjh/adrian/dalton/build/basis/aug-cc-pVQZ"


                      SYMADD: Requested addition of symmetry
                      --------------------------------------

 Symmetry test threshold:  5.00E-06

@   The molecule is centered at center of mass and rotated
@   so principal axes of inertia are along coordinate axes.

 Symmetry class found: D(oo,h)        

 Symmetry Independent Centres             
 ----------------------------
F_b    9 :      0.00000000     0.00000000     1.33408000  Isotope  1

 The following symmetry elements were found:   X  Y  Z  


                         SYMGRP: Point group information
                         -------------------------------

@    Full point group is: D(oo,h)        
@    Represented as:      D2h

@  * The irrep name for each symmetry:    1: Ag     2: B3u    3: B2u    4: B1g    5: B1u    6: B2g    7: B3g    8: Au 


   * The point group was generated by:

      Reflection in the yz-plane
      Reflection in the xz-plane
      Reflection in the xy-plane

   * Group multiplication table

        |  E   C2z  C2y  C2x   i   Oxy  Oxz  Oyz
   -----+----------------------------------------
     E  |  E   C2z  C2y  C2x   i   Oxy  Oxz  Oyz
    C2z | C2z   E   C2x  C2y  Oxy   i   Oyz  Oxz
    C2y | C2y  C2x   E   C2z  Oxz  Oyz   i   Oxy
    C2x | C2x  C2y  C2z   E   Oyz  Oxz  Oxy   i 
     i  |  i   Oxy  Oxz  Oyz   E   C2z  C2y  C2x
    Oxy | Oxy   i   Oyz  Oxz  C2z   E   C2x  C2y
    Oxz | Oxz  Oyz   i   Oxy  C2y  C2x   E   C2z
    Oyz | Oyz  Oxz  Oxy   i   C2x  C2y  C2z   E 

   * Character table

        |  E   C2z  C2y  C2x   i   Oxy  Oxz  Oyz
   -----+----------------------------------------
    Ag  |   1    1    1    1    1    1    1    1
    B3u |   1   -1   -1    1   -1    1    1   -1
    B2u |   1   -1    1   -1   -1    1   -1    1
    B1g |   1    1   -1   -1    1    1   -1   -1
    B1u |   1    1   -1   -1   -1   -1    1    1
    B2g |   1   -1    1   -1    1   -1    1   -1
    B3g |   1   -1   -1    1    1   -1   -1    1
    Au  |   1    1    1    1   -1   -1   -1   -1

   * Direct product table

        | Ag   B3u  B2u  B1g  B1u  B2g  B3g  Au 
   -----+----------------------------------------
    Ag  | Ag   B3u  B2u  B1g  B1u  B2g  B3g  Au 
    B3u | B3u  Ag   B1g  B2u  B2g  B1u  Au   B3g
    B2u | B2u  B1g  Ag   B3u  B3g  Au   B1u  B2g
    B1g | B1g  B2u  B3u  Ag   Au   B3g  B2g  B1u
    B1u | B1u  B2g  B3g  Au   Ag   B3u  B2u  B1g
    B2g | B2g  B1u  Au   B3g  B3u  Ag   B1g  B2u
    B3g | B3g  Au   B1u  B2g  B2u  B1g  Ag   B3u
    Au  | Au   B3g  B2g  B1u  B1g  B2u  B3u  Ag 


                                 Isotopic Masses
                                 ---------------

                           F_b _1     18.998403
                           F_b _2     18.998403

                       Total mass:    37.996806 amu
                       Natural abundance: 100.000 %

 Center-of-mass coordinates (a.u.):    0.000000    0.000000    0.000000
 Center-of-mass coordinates (Angs):    0.000000    0.000000    0.000000


  Atoms and basis sets
  --------------------

  Number of atom types :    1
  Total number of atoms:    2

  Basis set used is "d-aug-cc-pVQZ" from the basis set library.

  label    atoms   charge   prim   cont     basis
  ----------------------------------------------------------------------
  F_          2    9.0000   118   105      [14s8p5d4f3g|7s6p5d4f3g]                           
  ----------------------------------------------------------------------
  total:      2   18.0000   236   210
  ----------------------------------------------------------------------
  Spherical harmonic basis used.

  Threshold for neglecting AO integrals:  1.00D-12


  Cartesian Coordinates (a.u.)
  ----------------------------

  Total number of coordinates:    6
  F_b / 1 :     1  x   0.0000000000    2  y   0.0000000000    3  z   1.3340800000
  F_b / 2 :     4  x   0.0000000000    5  y   0.0000000000    6  z  -1.3340800000


  Symmetry Coordinates
  --------------------

  Number of coordinates in each symmetry:     1    1    1    0    1    1    1    0

  Symmetry  Ag  ( 1)

    1   F_b   z    [  3  -    6 ]/2

  Symmetry  B3u ( 2)

    2   F_b   x    [  1  +    4 ]/2

  Symmetry  B2u ( 3)

    3   F_b   y    [  2  +    5 ]/2

  Symmetry  B1u ( 5)

    4   F_b   z    [  3  +    6 ]/2

  Symmetry  B2g ( 6)

    5   F_b   x    [  1  -    4 ]/2

  Symmetry  B3g ( 7)

    6   F_b   y    [  2  -    5 ]/2


   Interatomic separations (in Angstrom):
   --------------------------------------

            F_b _1      F_b _2
            ------      ------
 F_b _1:    0.000000
 F_b _2:    1.411929    0.000000


  Max    interatomic separation is    1.4119 Angstrom (    2.6682 Bohr)
  between atoms    2 and    1, "F_b _2" and "F_b _1".

  Min YX interatomic separation is    1.4119 Angstrom (    2.6682 Bohr)


  Bond distances (Angstrom):
  --------------------------

                  atom 1     atom 2       distance
                  ------     ------       --------
  bond distance:  F_b _2     F_b _1       1.411929




 Principal moments of inertia (u*A**2) and principal axes
 --------------------------------------------------------

   IA       0.000000          0.000000    0.000000    1.000000
   IB      18.937084          0.000000    1.000000    0.000000
   IC      18.937084          1.000000    0.000000    0.000000


 Rotational constants
 --------------------

@    The molecule is linear.

               B =        26687.27 MHz     (    0.890191 cm-1)


@  Nuclear repulsion energy :   30.357999520269 Hartree


  Symmetry Orbitals
  -----------------

  Number of orbitals in each symmetry:          40   25   25   15   40   25   25   15


  Symmetry  Ag ( 1)

    1     F_b      1s         1 +    2
    2     F_b      1s         3 +    4
    3     F_b      1s         5 +    6
    4     F_b      1s         7 +    8
    5     F_b      1s         9 +   10
    6     F_b      1s        11 +   12
    7     F_b      1s        13 +   14
    8     F_b      2pz       19 -   20
    9     F_b      2pz       25 -   26
   10     F_b      2pz       31 -   32
   11     F_b      2pz       37 -   38
   12     F_b      2pz       43 -   44
   13     F_b      2pz       49 -   50
   14     F_b      3d0       55 +   56
   15     F_b      3d2+      59 +   60
   16     F_b      3d0       65 +   66
   17     F_b      3d2+      69 +   70
   18     F_b      3d0       75 +   76
   19     F_b      3d2+      79 +   80
   20     F_b      3d0       85 +   86
   21     F_b      3d2+      89 +   90
   22     F_b      3d0       95 +   96
   23     F_b      3d2+      99 +  100
   24     F_b      4f0      107 -  108
   25     F_b      4f2+     111 -  112
   26     F_b      4f0      121 -  122
   27     F_b      4f2+     125 -  126
   28     F_b      4f0      135 -  136
   29     F_b      4f2+     139 -  140
   30     F_b      4f0      149 -  150
   31     F_b      4f2+     153 -  154
   32     F_b      5g0      165 +  166
   33     F_b      5g2+     169 +  170
   34     F_b      5g4+     173 +  174
   35     F_b      5g0      183 +  184
   36     F_b      5g2+     187 +  188
   37     F_b      5g4+     191 +  192
   38     F_b      5g0      201 +  202
   39     F_b      5g2+     205 +  206
   40     F_b      5g4+     209 +  210


  Symmetry  B3u( 2)

   41     F_b      2px       15 +   16
   42     F_b      2px       21 +   22
   43     F_b      2px       27 +   28
   44     F_b      2px       33 +   34
   45     F_b      2px       39 +   40
   46     F_b      2px       45 +   46
   47     F_b      3d1+      57 -   58
   48     F_b      3d1+      67 -   68
   49     F_b      3d1+      77 -   78
   50     F_b      3d1+      87 -   88
   51     F_b      3d1+      97 -   98
   52     F_b      4f1+     109 +  110
   53     F_b      4f3+     113 +  114
   54     F_b      4f1+     123 +  124
   55     F_b      4f3+     127 +  128
   56     F_b      4f1+     137 +  138
   57     F_b      4f3+     141 +  142
   58     F_b      4f1+     151 +  152
   59     F_b      4f3+     155 +  156
   60     F_b      5g1+     167 -  168
   61     F_b      5g3+     171 -  172
   62     F_b      5g1+     185 -  186
   63     F_b      5g3+     189 -  190
   64     F_b      5g1+     203 -  204
   65     F_b      5g3+     207 -  208


  Symmetry  B2u( 3)

   66     F_b      2py       17 +   18
   67     F_b      2py       23 +   24
   68     F_b      2py       29 +   30
   69     F_b      2py       35 +   36
   70     F_b      2py       41 +   42
   71     F_b      2py       47 +   48
   72     F_b      3d1-      53 -   54
   73     F_b      3d1-      63 -   64
   74     F_b      3d1-      73 -   74
   75     F_b      3d1-      83 -   84
   76     F_b      3d1-      93 -   94
   77     F_b      4f3-     101 +  102
   78     F_b      4f1-     105 +  106
   79     F_b      4f3-     115 +  116
   80     F_b      4f1-     119 +  120
   81     F_b      4f3-     129 +  130
   82     F_b      4f1-     133 +  134
   83     F_b      4f3-     143 +  144
   84     F_b      4f1-     147 +  148
   85     F_b      5g3-     159 -  160
   86     F_b      5g1-     163 -  164
   87     F_b      5g3-     177 -  178
   88     F_b      5g1-     181 -  182
   89     F_b      5g3-     195 -  196
   90     F_b      5g1-     199 -  200


  Symmetry  B1g( 4)

   91     F_b      3d2-      51 +   52
   92     F_b      3d2-      61 +   62
   93     F_b      3d2-      71 +   72
   94     F_b      3d2-      81 +   82
   95     F_b      3d2-      91 +   92
   96     F_b      4f2-     103 -  104
   97     F_b      4f2-     117 -  118
   98     F_b      4f2-     131 -  132
   99     F_b      4f2-     145 -  146
  100     F_b      5g4-     157 +  158
  101     F_b      5g2-     161 +  162
  102     F_b      5g4-     175 +  176
  103     F_b      5g2-     179 +  180
  104     F_b      5g4-     193 +  194
  105     F_b      5g2-     197 +  198


  Symmetry  B1u( 5)

  106     F_b      1s         1 -    2
  107     F_b      1s         3 -    4
  108     F_b      1s         5 -    6
  109     F_b      1s         7 -    8
  110     F_b      1s         9 -   10
  111     F_b      1s        11 -   12
  112     F_b      1s        13 -   14
  113     F_b      2pz       19 +   20
  114     F_b      2pz       25 +   26
  115     F_b      2pz       31 +   32
  116     F_b      2pz       37 +   38
  117     F_b      2pz       43 +   44
  118     F_b      2pz       49 +   50
  119     F_b      3d0       55 -   56
  120     F_b      3d2+      59 -   60
  121     F_b      3d0       65 -   66
  122     F_b      3d2+      69 -   70
  123     F_b      3d0       75 -   76
  124     F_b      3d2+      79 -   80
  125     F_b      3d0       85 -   86
  126     F_b      3d2+      89 -   90
  127     F_b      3d0       95 -   96
  128     F_b      3d2+      99 -  100
  129     F_b      4f0      107 +  108
  130     F_b      4f2+     111 +  112
  131     F_b      4f0      121 +  122
  132     F_b      4f2+     125 +  126
  133     F_b      4f0      135 +  136
  134     F_b      4f2+     139 +  140
  135     F_b      4f0      149 +  150
  136     F_b      4f2+     153 +  154
  137     F_b      5g0      165 -  166
  138     F_b      5g2+     169 -  170
  139     F_b      5g4+     173 -  174
  140     F_b      5g0      183 -  184
  141     F_b      5g2+     187 -  188
  142     F_b      5g4+     191 -  192
  143     F_b      5g0      201 -  202
  144     F_b      5g2+     205 -  206
  145     F_b      5g4+     209 -  210


  Symmetry  B2g( 6)

  146     F_b      2px       15 -   16
  147     F_b      2px       21 -   22
  148     F_b      2px       27 -   28
  149     F_b      2px       33 -   34
  150     F_b      2px       39 -   40
  151     F_b      2px       45 -   46
  152     F_b      3d1+      57 +   58
  153     F_b      3d1+      67 +   68
  154     F_b      3d1+      77 +   78
  155     F_b      3d1+      87 +   88
  156     F_b      3d1+      97 +   98
  157     F_b      4f1+     109 -  110
  158     F_b      4f3+     113 -  114
  159     F_b      4f1+     123 -  124
  160     F_b      4f3+     127 -  128
  161     F_b      4f1+     137 -  138
  162     F_b      4f3+     141 -  142
  163     F_b      4f1+     151 -  152
  164     F_b      4f3+     155 -  156
  165     F_b      5g1+     167 +  168
  166     F_b      5g3+     171 +  172
  167     F_b      5g1+     185 +  186
  168     F_b      5g3+     189 +  190
  169     F_b      5g1+     203 +  204
  170     F_b      5g3+     207 +  208


  Symmetry  B3g( 7)

  171     F_b      2py       17 -   18
  172     F_b      2py       23 -   24
  173     F_b      2py       29 -   30
  174     F_b      2py       35 -   36
  175     F_b      2py       41 -   42
  176     F_b      2py       47 -   48
  177     F_b      3d1-      53 +   54
  178     F_b      3d1-      63 +   64
  179     F_b      3d1-      73 +   74
  180     F_b      3d1-      83 +   84
  181     F_b      3d1-      93 +   94
  182     F_b      4f3-     101 -  102
  183     F_b      4f1-     105 -  106
  184     F_b      4f3-     115 -  116
  185     F_b      4f1-     119 -  120
  186     F_b      4f3-     129 -  130
  187     F_b      4f1-     133 -  134
  188     F_b      4f3-     143 -  144
  189     F_b      4f1-     147 -  148
  190     F_b      5g3-     159 +  160
  191     F_b      5g1-     163 +  164
  192     F_b      5g3-     177 +  178
  193     F_b      5g1-     181 +  182
  194     F_b      5g3-     195 +  196
  195     F_b      5g1-     199 +  200


  Symmetry  Au ( 8)

  196     F_b      3d2-      51 -   52
  197     F_b      3d2-      61 -   62
  198     F_b      3d2-      71 -   72
  199     F_b      3d2-      81 -   82
  200     F_b      3d2-      91 -   92
  201     F_b      4f2-     103 +  104
  202     F_b      4f2-     117 +  118
  203     F_b      4f2-     131 +  132
  204     F_b      4f2-     145 +  146
  205     F_b      5g4-     157 -  158
  206     F_b      5g2-     161 -  162
  207     F_b      5g4-     175 -  176
  208     F_b      5g2-     179 -  180
  209     F_b      5g4-     193 -  194
  210     F_b      5g2-     197 -  198

  Symmetries of electric field:  B3u(2)  B2u(3)  B1u(5)

  Symmetries of magnetic field:  B3g(7)  B2g(6)  B1g(4)


                     .---------------------------------------.
                     | Starting in Integral Section (HERMIT) |
                     `---------------------------------------'



 ***************************************************************************************
 ****************** Output from **INTEGRALS input processing (HERMIT) ******************
 ***************************************************************************************


 - Using defaults, no **INTEGRALS input found

 Default print level:        1

 Calculation of one-electron Hamiltonian integrals.

 Center of mass  (bohr):      0.000000000000      0.000000000000      0.000000000000
 Operator center (bohr):      0.000000000000      0.000000000000      0.000000000000
 Gauge origin    (bohr):      0.000000000000      0.000000000000      0.000000000000
 Dipole origin   (bohr):      0.000000000000      0.000000000000      0.000000000000


     ************************************************************************
     ************************** Output from HERINT **************************
     ************************************************************************



                      Nuclear contribution to dipole moments
                      --------------------------------------

                    All dipole components are zero by symmetry


  Time used in GABGEN     is       0.28 seconds
  Total CPU  time used in HERMIT:   0.40 seconds
  Total wall time used in HERMIT:   0.41 seconds


                        .----------------------------------.
                        | End of Integral Section (HERMIT) |
                        `----------------------------------'



                   .--------------------------------------------.
                   | Starting in Wave Function Section (SIRIUS) |
                   `--------------------------------------------'


 *** Output from Huckel module :

     Using EWMO model:          F
     Using EHT  model:          T
     Number of Huckel orbitals each symmetry:    3    1    1    0    3    1    1    0

 Huckel EHT eigenvalues for symmetry :  1
          -26.385657      -1.787625      -0.792360

 Huckel EHT eigenvalues for symmetry :  2
           -0.800215

 Huckel EHT eigenvalues for symmetry :  3
           -0.800215

 Huckel EHT eigenvalues for symmetry :  5
          -26.385463      -1.454670      -0.564625

 Huckel EHT eigenvalues for symmetry :  6
           -0.659785

 Huckel EHT eigenvalues for symmetry :  7
           -0.659785

 **********************************************************************
 *SIRIUS* a direct, restricted step, second order MCSCF program       *
 **********************************************************************

 
     Date and time (Linux)  : Wed Jan 11 14:16:49 2023
     Host name              : cn040                                   

 Title lines from ".mol" input file:
     blah                                                                    
     blah                                                                    

 Print level on unit LUPRI =   2 is   0
 Print level on unit LUW4  =   2 is   5

@    Restricted, closed shell Hartree-Fock calculation.

@    Time-dependent Hartree-Fock calculation (random phase approximation).
 Fock matrices are calculated directly and in parallel without use of integrals on disk.

 Initial molecular orbitals are obtained according to
 ".MOSTART EHT   " input option

     Wave function specification
     ============================
@    Wave function type        --- HF ---
@    Number of closed shell electrons          18
@    Number of electrons in active shells       0
@    Total charge of the molecule               0

@    Spin multiplicity and 2 M_S                1         0
@    Total number of symmetries                 8 (point group: D2h)
@    Reference state symmetry                   1 (irrep name : Ag )

     Orbital specifications
     ======================
@    Abelian symmetry species          All |    1    2    3    4    5    6    7    8
@                                          |  Ag   B3u  B2u  B1g  B1u  B2g  B3g  Au 
                                       --- |  ---  ---  ---  ---  ---  ---  ---  ---
@    Total number of orbitals          210 |   40   25   25   15   40   25   25   15
@    Number of basis functions         210 |   40   25   25   15   40   25   25   15

      ** Automatic occupation of RHF orbitals **

      -- Initial occupation of symmetries is determined from extended Huckel guess.           
      -- Initial occupation of symmetries is :
@    Occupied SCF orbitals               9 |    3    1    1    0    2    1    1    0

     Maximum number of Fock   iterations      0
     Maximum number of DIIS   iterations     60
     Maximum number of QC-SCF iterations     60
     Threshold for SCF convergence     1.00D-05


 ***********************************************
 ***** DIIS acceleration of SCF iterations *****
 ***********************************************

 C1-DIIS algorithm; max error vectors =    8

 Automatic occupation of symmetries with  18 electrons.

 Iter     Total energy    Error norm  Delta(E)    SCF occupation
 -----------------------------------------------------------------------------
   1  Screening settings (-IFTHRS, JTDIIS, DIFDEN, times)   -7    1    T  1.88D+00  1.88D+00
@  1  -198.649426423       1.93D+00  -1.99D+02     3   1   1   0   2   1   1   0
      Virial theorem: -V/T =      2.002613
@    MULPOP   F_b _1  0.00; F_b _2  0.00; 
   1  Level shift: doubly occupied orbital energies shifted by -2.00D-01
 -----------------------------------------------------------------------------
   2  Screening settings (-IFTHRS, JTDIIS, DIFDEN, times)   -7    2    T  1.94D+00  1.94D+00
@  2  -198.762053927       4.45D-01  -1.13D-01     3   1   1   0   2   1   1   0
      Virial theorem: -V/T =      1.999745
@    MULPOP   F_b _1 -0.00; F_b _2 -0.00; 
   2  Level shift: doubly occupied orbital energies shifted by -5.00D-02
 -----------------------------------------------------------------------------
   3  Screening settings (-IFTHRS, JTDIIS, DIFDEN, times)  -11    3    F  1.95D+00  1.95D+00
@  3  -198.768452270       9.22D-02  -6.40D-03     3   1   1   0   2   1   1   0
      Virial theorem: -V/T =      2.001523
@    MULPOP   F_b _1 -0.00; F_b _2 -0.00; 
   3  Level shift: doubly occupied orbital energies shifted by -1.25D-02
 -----------------------------------------------------------------------------
   4  Screening settings (-IFTHRS, JTDIIS, DIFDEN, times)  -11    4    T  1.85D+00  1.85D+00
@  4  -198.769153351       3.12D-02  -7.01D-04     3   1   1   0   2   1   1   0
      Virial theorem: -V/T =      2.000823
@    MULPOP   F_b _1 -0.00; F_b _2 -0.00; 
 -----------------------------------------------------------------------------
   5  Screening settings (-IFTHRS, JTDIIS, DIFDEN, times)  -11    5    T  1.96D+00  1.96D+00
@  5  -198.769206138       6.74D-03  -5.28D-05     3   1   1   0   2   1   1   0
      Virial theorem: -V/T =      2.001081
@    MULPOP   F_b _1 -0.00; F_b _2 -0.00; 
 -----------------------------------------------------------------------------
   6  Screening settings (-IFTHRS, JTDIIS, DIFDEN, times)  -11    6    T  1.93D+00  1.93D+00
@  6  -198.769208541       7.05D-04  -2.40D-06     3   1   1   0   2   1   1   0
      Virial theorem: -V/T =      2.001028
@    MULPOP   F_b _1 -0.00; F_b _2 -0.00; 
 -----------------------------------------------------------------------------
   7  Screening settings (-IFTHRS, JTDIIS, DIFDEN, times)  -11    7    T  1.93D+00  1.93D+00
@  7  -198.769208579       6.88D-05  -3.77D-08     3   1   1   0   2   1   1   0
      Virial theorem: -V/T =      2.001030
@    MULPOP   F_b _1  0.00; F_b _2  0.00; 
 -----------------------------------------------------------------------------
   8  Screening settings (-IFTHRS, JTDIIS, DIFDEN, times)  -11    8    T  1.94D+00  1.94D+00
@  8  -198.769208579       7.48D-06  -4.02D-10     3   1   1   0   2   1   1   0

@ *** DIIS converged in   8 iterations !
@     Converged SCF energy, gradient:   -198.769208579009    7.48D-06
    - total time used in SIRFCK :              0.00 seconds


 *** SCF orbital energy analysis ***

 Only the 20 lowest virtual orbital energies printed in each symmetry.

 Number of electrons :   18
 Orbital occupations :    3    1    1    0    2    1    1    0

 Sym       Hartree-Fock orbital energies

1 Ag    -26.42913093    -1.76507637    -0.75197861     0.03655601     0.06883597
          0.19212926     0.22390954     0.23935219     0.44591460     0.69465933
          0.72742761     0.87419286     0.88269559     1.27587126     1.70399451
          1.76255684     1.94734763     1.99964072     2.22859874     2.32393271
          2.48656248     2.93574971     3.83269374

2 B3u    -0.81142754     0.04624714     0.21214304     0.29480560     0.71852810
          0.74189532     0.83264750     1.14821469     1.91234896     1.97843617
          2.15490472     2.19772266     2.71109679     4.13945216     5.10289418
          5.16458783     5.72401578     5.74521082     6.61276173    13.28497953
         13.93552964

3 B2u    -0.81142754     0.04624714     0.21214304     0.29480560     0.71852810
          0.74189532     0.83264750     1.14821469     1.91234896     1.97843617
          2.15490472     2.19772266     2.71109679     4.13945216     5.10289418
          5.16458783     5.72401578     5.74521082     6.61276173    13.28497953
         13.93552964

4 B1g     0.22390954     0.72742761     0.87419286     1.76255684     1.94734763
          2.22859874     2.48656248     5.07145463     5.28690039     5.77892413
          5.91122708    13.97015397    14.20646607    15.85015018    16.72096279

5 B1u   -26.42888495    -1.49788919     0.02887271     0.06864406     0.12394144
          0.26152666     0.29093018     0.29124926     0.55463747     0.80021668
          0.80114612     1.06222576     1.12140636     1.22526473     2.03305537
          2.07393442     2.17510917     2.18196447     2.20262683     2.73806333
          3.20765199     3.36548932

6 B2g    -0.66696011     0.06414649     0.23831450     0.36757100     0.68330232
          0.88223510     0.97723179     1.54451111     2.16603701     2.21459540
          2.31534030     2.57966917     3.42891843     4.12157942     5.52261805
          5.78764212     5.91877608     6.78637338     7.77887874    13.74550084
         14.19041665

7 B3g    -0.66696011     0.06414649     0.23831450     0.36757100     0.68330232
          0.88223510     0.97723179     1.54451111     2.16603701     2.21459540
          2.31534030     2.57966917     3.42891843     4.12157942     5.52261805
          5.78764212     5.91877608     6.78637338     7.77887874    13.74550084
         14.19041665

8 Au      0.29093018     0.80114612     1.12140636     2.03305537     2.18196447
          2.20262683     3.36548932     5.48004095     5.64942712     6.30012677
          6.70285545    14.06792643    14.18860190    16.28444536    16.93450604

    E(LUMO) :     0.02887271 au (symmetry 5)
  - E(HOMO) :    -0.66696011 au (symmetry 6)
  ------------------------------------------
    gap     :     0.69583281 au

 --- Writing SIRIFC interface file

 CPU and wall time for SCF :      15.400      15.410


                       .-----------------------------------.
                       | --- Final results from SIRIUS --- |
                       `-----------------------------------'


@    Spin multiplicity:           1
@    Spatial symmetry:            1 ( irrep  Ag  in D2h )
@    Total charge of molecule:    0

@    Final HF energy:            -198.769208579009                 
@    Nuclear repulsion:            30.357999520269
@    Electronic energy:          -229.127208099278

@    Final gradient norm:           0.000007477401

 
     Date and time (Linux)  : Wed Jan 11 14:17:04 2023
     Host name              : cn040                                   

File label for MO orbitals:  11Jan23   FOCKDIIS

 (Only coefficients > 0.0100 are printed.)

 Molecular orbitals for symmetry species 1  (Ag )
 ------------------------------------------------

    Orbital         1        2        3        4        5        6        7
   1 F_b :1s     0.7074  -0.0014   0.0022  -0.0003   0.0021  -0.0037  -0.0000
   2 F_b :1s     0.0009   0.6661   0.1618   0.0462   0.0404  -0.1280  -0.0000
   4 F_b :1s    -0.0017  -0.0072   0.0108   0.0232  -0.0302   0.0039   0.0000
   5 F_b :1s     0.0001  -0.0232   0.0764   0.2814   0.0461   1.0402   0.0000
   6 F_b :1s     0.0001   0.0036   0.0081   0.9441   0.9374   3.4820  -0.0000
   7 F_b :1s    -0.0000  -0.0012  -0.0038  -1.2255  -0.3430  -1.9017  -0.0000
   8 F_b :2pz   -0.0041  -0.0851   0.6316   0.0282   0.0055  -0.0690  -0.0000
   9 F_b :2pz    0.0017  -0.0016  -0.0003   0.0049  -0.0012   0.0199   0.0000
  10 F_b :2pz    0.0021  -0.0040   0.0077  -0.0293   0.0174  -0.1144   0.0000
  11 F_b :2pz    0.0003   0.0073   0.0104   0.0308  -0.0273   0.0767   0.0000
  12 F_b :2pz    0.0002   0.0064   0.0311   1.2258   0.7539   5.3122   0.0000
  13 F_b :2pz    0.0001   0.0005  -0.0008  -0.8865   2.2335   0.3932   0.0000
  18 F_b :3d0    0.0002   0.0097  -0.0220   0.0073  -0.0035   0.0160   0.0000
  19 F_b :3d2+  -0.0000   0.0000   0.0000   0.0000   0.0000  -0.0000   0.0512
  20 F_b :3d0    0.0005   0.0040  -0.0268  -0.1174   0.0506  -0.4252  -0.0000
  21 F_b :3d2+   0.0000  -0.0000  -0.0000  -0.0000  -0.0000   0.0000  -0.1673
  22 F_b :3d0   -0.0002  -0.0034  -0.0100  -0.5061  -0.5085  -2.4319  -0.0000
  23 F_b :3d2+  -0.0000   0.0000   0.0000   0.0000   0.0000  -0.0000   0.6147
  28 F_b :4f0   -0.0003  -0.0040   0.0061   0.0024  -0.0190   0.0089   0.0000
  30 F_b :4f0   -0.0001  -0.0006   0.0077   0.0743   0.0261   0.3008   0.0000
  38 F_b :5g0    0.0001   0.0003  -0.0002  -0.0077   0.0012  -0.0317  -0.0000
  39 F_b :5g2+   0.0000   0.0000   0.0000   0.0000   0.0000  -0.0000   0.0131

    Orbital         8        9       10       11       12       13
   1 F_b :1s     0.0073  -0.0075  -0.0223  -0.0000   0.0000   0.0067
   2 F_b :1s     0.0095  -0.2053  -0.1161   0.0000   0.0000   0.0705
   3 F_b :1s     0.0263  -0.0055  -0.0832   0.0000   0.0000   0.0326
   4 F_b :1s    -0.1550   0.0275   0.4514  -0.0000  -0.0000  -0.1858
   5 F_b :1s    -0.5644  -3.3232   3.2946  -0.0000   0.0000   0.9795
   6 F_b :1s     0.5800  -1.6256  -0.7010  -0.0000  -0.0000   0.9817
   7 F_b :1s    -0.0028   1.4552  -0.4294  -0.0000  -0.0000  -0.6600
   8 F_b :2pz    0.0775  -0.0165   0.1707   0.0000   0.0000   0.0612
   9 F_b :2pz   -0.0143  -0.0558   0.0736  -0.0000  -0.0000   0.0037
  10 F_b :2pz    0.1267   0.3680  -0.5497  -0.0000  -0.0000   0.1337
  11 F_b :2pz   -0.1080  -0.5133   0.6994  -0.0000  -0.0000  -0.0626
  12 F_b :2pz   -0.8451  -7.0419   3.3540   0.0000   0.0000   2.5505
  13 F_b :2pz    1.3304  -0.3478  -0.6220  -0.0000   0.0000   0.2681
  16 F_b :3d0   -0.0054  -0.0235  -0.0023  -0.0000  -0.0000  -0.0086
  17 F_b :3d2+   0.0000   0.0000   0.0000  -0.0498   0.0101  -0.0000
  18 F_b :3d0   -0.0486  -0.0278   0.1137  -0.0000   0.0000  -0.0242
  19 F_b :3d2+  -0.0000  -0.0000  -0.0000   0.1052  -0.0440   0.0000
  20 F_b :3d0    0.4634   1.0020  -2.2504  -0.0000  -0.0000   0.3379
  21 F_b :3d2+   0.0000   0.0000   0.0000  -0.8324   0.4531  -0.0000
  22 F_b :3d0   -0.5553   3.4025  -0.8081  -0.0000  -0.0000  -1.3927
  23 F_b :3d2+  -0.0000  -0.0000   0.0000   0.4015  -0.1124   0.0000
  26 F_b :4f0    0.0097   0.0211  -0.0291   0.0000  -0.0000   0.0622
  27 F_b :4f2+  -0.0000   0.0000  -0.0000   0.0091   0.0595  -0.0000
  28 F_b :4f0   -0.0624  -0.1413   0.2601   0.0000  -0.0000  -0.2879
  29 F_b :4f2+   0.0000  -0.0000   0.0000  -0.0146  -0.2216   0.0000
  30 F_b :4f0   -0.1103  -0.4588   0.6629   0.0000   0.0000   0.9476
  31 F_b :4f2+  -0.0000   0.0000  -0.0000   0.0268   0.8947  -0.0000
  35 F_b :5g0    0.0098   0.0123  -0.0402  -0.0000  -0.0000   0.0176
  36 F_b :5g2+  -0.0000   0.0000  -0.0000  -0.0153  -0.0021  -0.0000
  38 F_b :5g0    0.0213   0.0881  -0.1155  -0.0000  -0.0000   0.0099
  39 F_b :5g2+   0.0000  -0.0000   0.0000   0.0407  -0.0343   0.0000

 Molecular orbitals for symmetry species 2  (B3u)
 ------------------------------------------------

    Orbital         1        2        3        4        5        6        7
   1 F_b :2px    0.6837   0.0385   0.1405  -0.0574   0.0000   0.2269  -0.3173
   2 F_b :2px   -0.0016  -0.0013   0.0076   0.0014  -0.0000   0.0045   0.0361
   3 F_b :2px   -0.0019   0.0009  -0.0065  -0.0190  -0.0000  -0.0428  -0.0942
   4 F_b :2px   -0.0237  -0.0662   0.3417  -0.4359   0.0000  -1.4141   1.3850
   5 F_b :2px    0.0033   0.1991  -1.0139  -0.0740  -0.0000   0.4171  -0.7435
   6 F_b :2px    0.0008  -0.6110   0.4438   0.0431   0.0000  -0.0720   0.2083
   8 F_b :3d1+  -0.0055  -0.0022   0.0061  -0.0001  -0.0000  -0.0015   0.0496
   9 F_b :3d1+  -0.0091   0.0115  -0.0580   0.0084   0.0000   0.1503  -0.2185
  10 F_b :3d1+  -0.0037  -0.0313   0.1414   0.0333   0.0000  -0.0349   0.9270
  11 F_b :3d1+  -0.0011   0.0191  -0.2633  -1.3945  -0.0000  -1.0413  -0.2462
  14 F_b :4f1+   0.0039  -0.0009   0.0068   0.0067   0.0000   0.0203   0.0255
  15 F_b :4f3+  -0.0000   0.0000   0.0000  -0.0000   0.0520  -0.0000  -0.0000
  16 F_b :4f1+   0.0030   0.0038  -0.0184  -0.0285  -0.0000  -0.0807  -0.0961
  17 F_b :4f3+  -0.0000  -0.0000  -0.0000   0.0000  -0.1933  -0.0000   0.0000
  18 F_b :4f1+   0.0041   0.0294  -0.0993   0.3666  -0.0000   1.3505  -0.2967
  19 F_b :4f3+   0.0000   0.0000   0.0000  -0.0000   0.6719   0.0000  -0.0000
  22 F_b :5g1+  -0.0007   0.0013  -0.0049   0.0137  -0.0000   0.0351  -0.0128
  23 F_b :5g3+   0.0000   0.0000   0.0000  -0.0000  -0.0106   0.0000  -0.0000
  24 F_b :5g1+  -0.0020  -0.0132   0.0498  -0.0817   0.0000  -0.2717   0.2032
  25 F_b :5g3+  -0.0000  -0.0000  -0.0000   0.0000   0.0235  -0.0000   0.0000

    Orbital         8        9       10       11
   1 F_b :2px   -0.2953  -0.0000   0.1771   0.2567
   2 F_b :2px    0.0453   0.0000  -0.0132  -0.0626
   3 F_b :2px   -0.2056   0.0000   0.1809   0.5540
   4 F_b :2px   -0.7687   0.0000  -0.0820   1.1423
   5 F_b :2px    0.2296  -0.0000   0.0423  -0.5018
   6 F_b :2px   -0.0099   0.0000  -0.0156   0.0894
   7 F_b :3d1+   0.0015  -0.0000   0.0274  -0.0254
   8 F_b :3d1+  -0.0489  -0.0000  -0.0241   0.0602
   9 F_b :3d1+   0.1067   0.0000   0.5896  -1.0054
  10 F_b :3d1+  -0.8537   0.0000  -0.3554   1.7206
  11 F_b :3d1+  -0.5739  -0.0000   0.2996   0.4237
  14 F_b :4f1+   0.0469   0.0000  -0.0150  -0.0064
  15 F_b :4f3+   0.0000  -0.0310  -0.0000  -0.0000
  16 F_b :4f1+  -0.1746  -0.0000   0.0320   0.2111
  17 F_b :4f3+   0.0000   0.1546  -0.0000  -0.0000
  18 F_b :4f1+   1.5999  -0.0000  -0.1588  -1.7603
  19 F_b :4f3+  -0.0000  -0.1724   0.0000   0.0000
  20 F_b :5g1+   0.0011  -0.0000   0.0235   0.0143
  21 F_b :5g3+   0.0000  -0.0294  -0.0000  -0.0000
  22 F_b :5g1+  -0.0060  -0.0000  -0.0958  -0.0772
  23 F_b :5g3+  -0.0000   0.1442   0.0000   0.0000
  24 F_b :5g1+  -0.0928   0.0000   0.5296   1.0617
  25 F_b :5g3+   0.0000  -0.6482  -0.0000  -0.0000

 Molecular orbitals for symmetry species 3  (B2u)
 ------------------------------------------------

    Orbital         1        2        3        4        5        6        7
   1 F_b :2py    0.6837   0.0385   0.1405  -0.0574  -0.0000   0.2269  -0.3173
   2 F_b :2py   -0.0016  -0.0013   0.0076   0.0014   0.0000   0.0045   0.0361
   3 F_b :2py   -0.0019   0.0009  -0.0065  -0.0190   0.0000  -0.0428  -0.0942
   4 F_b :2py   -0.0237  -0.0662   0.3417  -0.4359   0.0000  -1.4141   1.3850
   5 F_b :2py    0.0033   0.1991  -1.0139  -0.0740  -0.0000   0.4171  -0.7435
   6 F_b :2py    0.0008  -0.6110   0.4438   0.0431   0.0000  -0.0720   0.2083
   8 F_b :3d1-  -0.0055  -0.0022   0.0061  -0.0001  -0.0000  -0.0015   0.0496
   9 F_b :3d1-  -0.0091   0.0115  -0.0580   0.0084   0.0000   0.1503  -0.2185
  10 F_b :3d1-  -0.0037  -0.0313   0.1414   0.0333  -0.0000  -0.0349   0.9270
  11 F_b :3d1-  -0.0011   0.0191  -0.2633  -1.3945  -0.0000  -1.0413  -0.2462
  14 F_b :4f3-  -0.0000  -0.0000  -0.0000   0.0000   0.0520  -0.0000   0.0000
  15 F_b :4f1-   0.0039  -0.0009   0.0068   0.0067   0.0000   0.0203   0.0255
  16 F_b :4f3-   0.0000   0.0000   0.0000  -0.0000  -0.1933   0.0000  -0.0000
  17 F_b :4f1-   0.0030   0.0038  -0.0184  -0.0285  -0.0000  -0.0807  -0.0961
  18 F_b :4f3-  -0.0000  -0.0000  -0.0000   0.0000   0.6719  -0.0000   0.0000
  19 F_b :4f1-   0.0041   0.0294  -0.0993   0.3666   0.0000   1.3505  -0.2967
  22 F_b :5g3-  -0.0000  -0.0000  -0.0000   0.0000  -0.0106  -0.0000   0.0000
  23 F_b :5g1-  -0.0007   0.0013  -0.0049   0.0137  -0.0000   0.0351  -0.0128
  24 F_b :5g3-   0.0000   0.0000   0.0000  -0.0000   0.0235   0.0000  -0.0000
  25 F_b :5g1-  -0.0020  -0.0132   0.0498  -0.0817  -0.0000  -0.2717   0.2032

    Orbital         8        9       10       11
   1 F_b :2py   -0.2953   0.0000   0.1771   0.2567
   2 F_b :2py    0.0453  -0.0000  -0.0132  -0.0626
   3 F_b :2py   -0.2056  -0.0000   0.1809   0.5540
   4 F_b :2py   -0.7687  -0.0000  -0.0820   1.1423
   5 F_b :2py    0.2296   0.0000   0.0423  -0.5018
   6 F_b :2py   -0.0099   0.0000  -0.0156   0.0894
   7 F_b :3d1-   0.0015  -0.0000   0.0274  -0.0254
   8 F_b :3d1-  -0.0489  -0.0000  -0.0241   0.0602
   9 F_b :3d1-   0.1067   0.0000   0.5896  -1.0054
  10 F_b :3d1-  -0.8537  -0.0000  -0.3554   1.7206
  11 F_b :3d1-  -0.5739  -0.0000   0.2996   0.4237
  14 F_b :4f3-   0.0000  -0.0310  -0.0000  -0.0000
  15 F_b :4f1-   0.0469   0.0000  -0.0150  -0.0064
  16 F_b :4f3-  -0.0000   0.1546   0.0000   0.0000
  17 F_b :4f1-  -0.1746   0.0000   0.0320   0.2111
  18 F_b :4f3-   0.0000  -0.1724  -0.0000   0.0000
  19 F_b :4f1-   1.5999   0.0000  -0.1588  -1.7603
  20 F_b :5g3-  -0.0000  -0.0294   0.0000   0.0000
  21 F_b :5g1-   0.0011  -0.0000   0.0235   0.0143
  22 F_b :5g3-   0.0000   0.1442  -0.0000  -0.0000
  23 F_b :5g1-  -0.0060  -0.0000  -0.0958  -0.0772
  24 F_b :5g3-  -0.0000  -0.6482   0.0000   0.0000
  25 F_b :5g1-  -0.0928  -0.0000   0.5296   1.0617

 Molecular orbitals for symmetry species 4  (B1g)
 ------------------------------------------------

    Orbital         1        2        3        4        5        6        7
   1 F_b :3d2-   0.0027   0.0034  -0.0016   0.0000   0.0309   0.0063  -0.0263
   2 F_b :3d2-  -0.0079  -0.0498   0.0101   0.0000  -0.0432  -0.0030   0.0570
   3 F_b :3d2-   0.0512   0.1052  -0.0440   0.0000   0.7055   0.1170  -0.8244
   4 F_b :3d2-  -0.1673  -0.8324   0.4531   0.0000  -0.6172  -0.3145   0.2143
   5 F_b :3d2-   0.6147   0.4015  -0.1124   0.0000   0.2138   0.0762  -0.0395
   6 F_b :4f2-  -0.0003  -0.0009  -0.0081   0.0000  -0.0086   0.0252  -0.0060
   7 F_b :4f2-   0.0016   0.0091   0.0595   0.0000   0.0391  -0.1448   0.0286
   8 F_b :4f2-  -0.0039  -0.0146  -0.2216   0.0000  -0.2141   0.9385  -0.0535
   9 F_b :4f2-  -0.0033   0.0268   0.8947   0.0000   0.0348  -0.6821  -0.2096
  10 F_b :5g4-   0.0000   0.0000   0.0000   0.0300   0.0000   0.0000   0.0000
  11 F_b :5g2-   0.0010   0.0029   0.0002   0.0000   0.0153   0.0124   0.0263
  12 F_b :5g4-   0.0000   0.0000   0.0000  -0.1462   0.0000   0.0000   0.0000
  13 F_b :5g2-  -0.0044  -0.0153  -0.0021   0.0000  -0.0684  -0.0637  -0.1466
  14 F_b :5g4-   0.0000   0.0000   0.0000   0.6883   0.0000   0.0000   0.0000
  15 F_b :5g2-   0.0131   0.0407  -0.0343   0.0000   0.3245   0.5455   0.9354

    Orbital         8        9       10
   1 F_b :3d2-   0.0093   0.0000   0.0287
   2 F_b :3d2-  -0.1429   0.0000  -0.9174
   3 F_b :3d2-   0.0541   0.0000   0.8140
   4 F_b :3d2-  -0.1179   0.0000  -0.3638
   5 F_b :3d2-   0.0548   0.0000   0.0986
   6 F_b :4f2-  -0.0339   0.0000   0.0270
   7 F_b :4f2-   0.4882   0.0000  -0.3982
   8 F_b :4f2-  -0.3308   0.0000   0.2992
   9 F_b :4f2-   0.0486   0.0000  -0.1123
  10 F_b :5g4-   0.0000  -0.1161   0.0000
  11 F_b :5g2-   0.0750   0.0000   0.0099
  12 F_b :5g4-   0.0000   0.8986   0.0000
  13 F_b :5g2-  -0.6615   0.0000  -0.0668
  14 F_b :5g4-   0.0000  -0.3431   0.0000
  15 F_b :5g2-   0.4107   0.0000  -0.0518

 Molecular orbitals for symmetry species 5  (B1u)
 ------------------------------------------------

    Orbital         1        2        3        4        5        6        7
   1 F_b :1s     0.7074   0.0010   0.0014  -0.0022  -0.0031  -0.0049  -0.0000
   2 F_b :1s     0.0009   0.7268   0.0728  -0.1988  -0.1154  -0.0069  -0.0000
   3 F_b :1s     0.0000   0.0026   0.0035   0.0019  -0.0094  -0.0250  -0.0000
   4 F_b :1s    -0.0021  -0.0007  -0.0344  -0.0766   0.1174   0.3237   0.0000
   5 F_b :1s     0.0051   0.0263   0.3315   0.2672  -0.9291  -1.9467   0.0000
   6 F_b :1s     0.0047  -0.0077   3.0771   3.8230  -8.7660 -18.1862  -0.0000
   7 F_b :1s     0.0015  -0.0112   8.7058  11.1798 -20.0350 -21.5837   0.0000
   8 F_b :2pz   -0.0040   0.0949  -0.1458   0.5021   0.4194  -0.2923   0.0000
   9 F_b :2pz    0.0019  -0.0014   0.0028   0.0054  -0.0085  -0.0249  -0.0000
  10 F_b :2pz    0.0013  -0.0042  -0.0122   0.0093   0.0366   0.0429  -0.0000
  11 F_b :2pz   -0.0029  -0.0231  -0.4747  -0.4792   1.4100   2.8909  -0.0000
  12 F_b :2pz   -0.0014   0.0063  -1.7015  -2.0113   4.9675   9.4156   0.0000
  13 F_b :2pz   -0.0001   0.0012  -1.8772  -1.8436   2.6703   2.3131  -0.0000
  16 F_b :3d0   -0.0004  -0.0027  -0.0045   0.0004   0.0121   0.0142  -0.0000
  18 F_b :3d0    0.0005  -0.0052   0.0233   0.0518  -0.0678  -0.1768   0.0000
  19 F_b :3d2+  -0.0000   0.0000   0.0000  -0.0000  -0.0000   0.0000   0.0337
  20 F_b :3d0    0.0011   0.0026   0.1380   0.2062  -0.4149  -1.0390   0.0000
  21 F_b :3d2+  -0.0000   0.0000   0.0000  -0.0000  -0.0000   0.0000   0.0599
  22 F_b :3d0    0.0002  -0.0014   0.2300   0.3342  -0.5703  -0.7515  -0.0000
  23 F_b :3d2+  -0.0000   0.0000   0.0000  -0.0000  -0.0000   0.0000   1.8136
  28 F_b :4f0   -0.0001   0.0006  -0.0123  -0.0179   0.0396   0.1063  -0.0000
  29 F_b :4f2+   0.0000  -0.0000  -0.0000   0.0000   0.0000  -0.0000   0.0353
  30 F_b :4f0   -0.0002  -0.0008  -0.0355  -0.0452   0.0800   0.1023   0.0000
  31 F_b :4f2+   0.0000  -0.0000  -0.0000   0.0000   0.0000  -0.0000  -0.3230
  35 F_b :5g0    0.0000   0.0002   0.0015   0.0027  -0.0053  -0.0157   0.0000
  36 F_b :5g2+   0.0000  -0.0000  -0.0000   0.0000   0.0000  -0.0000  -0.0102
  39 F_b :5g2+  -0.0000   0.0000   0.0000  -0.0000  -0.0000   0.0000   0.0391

    Orbital         8        9       10       11       12
   1 F_b :1s    -0.0025  -0.0041   0.0117   0.0000  -0.0300
   2 F_b :1s     0.0360   0.0888   0.1541  -0.0000  -0.2703
   3 F_b :1s    -0.0084  -0.0358   0.0408   0.0000  -0.1023
   4 F_b :1s     0.0767   0.6000  -0.4682   0.0000   0.8590
   5 F_b :1s     0.0340  -3.7266   1.3029  -0.0000 -10.4427
   6 F_b :1s     7.0879 -35.3335   5.2697   0.0000 -18.2286
   7 F_b :1s     8.7499 -20.3942   0.8285   0.0000  -7.5099
   8 F_b :2pz    0.0260   0.2772  -0.1549   0.0000   0.0151
   9 F_b :2pz   -0.0059  -0.0386   0.0403  -0.0000  -0.0340
  10 F_b :2pz    0.0193   0.0947  -0.1025  -0.0000   0.1661
  11 F_b :2pz   -0.1793   6.4068  -2.6141  -0.0000   8.6719
  12 F_b :2pz   -3.4507  13.9242  -1.5097  -0.0000   6.3276
  13 F_b :2pz   -1.0933   2.0053   0.0160  -0.0000   0.7209
  16 F_b :3d0   -0.0060   0.0392   0.0017   0.0000   0.0038
  17 F_b :3d2+  -0.0000  -0.0000  -0.0000  -0.0221   0.0000
  18 F_b :3d0    0.0308  -0.3510   0.1934  -0.0000  -0.1553
  19 F_b :3d2+   0.0000   0.0000   0.0000   0.0268  -0.0000
  20 F_b :3d0   -0.0545  -2.0324   0.9955   0.0000  -4.4991
  21 F_b :3d2+   0.0000  -0.0000   0.0000   0.8948  -0.0000
  22 F_b :3d0    1.7586  -2.0872  -0.8111   0.0000  -1.3477
  23 F_b :3d2+   0.0000  -0.0000   0.0000   1.3655  -0.0000
  26 F_b :4f0   -0.0079   0.0241   0.0078  -0.0000  -0.0003
  27 F_b :4f2+   0.0000  -0.0000   0.0000  -0.0211  -0.0000
  28 F_b :4f0    0.0306   0.1854  -0.2126  -0.0000   0.1687
  29 F_b :4f2+  -0.0000   0.0000  -0.0000   0.0461   0.0000
  30 F_b :4f0   -0.2201   0.3571   1.1394   0.0000   2.6152
  31 F_b :4f2+  -0.0000   0.0000  -0.0000  -1.7975   0.0000
  35 F_b :5g0   -0.0062  -0.0261   0.0499   0.0000   0.0367
  36 F_b :5g2+  -0.0000   0.0000  -0.0000  -0.0412   0.0000
  38 F_b :5g0    0.0311  -0.0261  -0.1746   0.0000  -0.4055
  39 F_b :5g2+   0.0000  -0.0000   0.0000   0.2463  -0.0000

 Molecular orbitals for symmetry species 6  (B2g)
 ------------------------------------------------

    Orbital         1        2        3        4        5        6        7
   1 F_b :2px    0.7450  -0.0183  -0.1063   0.0249   0.2399  -0.0000   0.0969
   2 F_b :2px   -0.0004  -0.0017   0.0075   0.0159   0.0228   0.0000  -0.0462
   3 F_b :2px   -0.0038   0.0124  -0.0571  -0.0458  -0.1645   0.0000   0.1536
   4 F_b :2px    0.0712  -0.4590   1.9928   0.3720   6.9208   0.0000  -1.1556
   5 F_b :2px    0.0576  -1.0917   6.2407  18.5820   4.6810   0.0000 -10.1852
   6 F_b :2px   -0.0050   3.0829  -1.8316  -0.2612  -0.9811  -0.0000  -0.0098
   8 F_b :3d1+   0.0006  -0.0030   0.0140   0.0011   0.0320   0.0000  -0.0119
   9 F_b :3d1+   0.0001   0.0231  -0.0877   0.0013  -0.2898   0.0000  -0.0486
  10 F_b :3d1+  -0.0429   0.3629  -1.6234   0.0225  -5.6226  -0.0000  -0.3131
  11 F_b :3d1+  -0.0143   0.2387  -1.4269  -7.4192  -1.0292  -0.0000   4.3155
  14 F_b :4f1+   0.0009   0.0026  -0.0111   0.0108  -0.0358   0.0000  -0.0375
  15 F_b :4f3+   0.0000  -0.0000  -0.0000   0.0000   0.0000   0.0552   0.0000
  16 F_b :4f1+   0.0040  -0.0413   0.1716  -0.0845   0.5681   0.0000   0.2901
  17 F_b :4f3+  -0.0000   0.0000   0.0000  -0.0000  -0.0000  -0.2252  -0.0000
  18 F_b :4f1+   0.0138  -0.1168   0.5467   0.2818   1.8250   0.0000  -1.1167
  19 F_b :4f3+   0.0000  -0.0000  -0.0000   0.0000   0.0000   1.2329   0.0000
  22 F_b :5g1+  -0.0005   0.0021  -0.0078   0.0093  -0.0268  -0.0000  -0.0283
  23 F_b :5g3+  -0.0000   0.0000   0.0000  -0.0000  -0.0000   0.0201  -0.0000
  24 F_b :5g1+  -0.0015   0.0203  -0.0880  -0.0088  -0.2865  -0.0000   0.0057
  25 F_b :5g3+   0.0000  -0.0000  -0.0000   0.0000   0.0000  -0.0999   0.0000

    Orbital         8        9       10       11
   1 F_b :2px   -0.4840   0.1122  -0.0000   0.0709
   2 F_b :2px    0.0773  -0.0871   0.0000  -0.0245
   3 F_b :2px   -0.6063   0.2620   0.0000   0.2801
   4 F_b :2px   13.1861   3.7775   0.0000   2.1454
   5 F_b :2px    4.8300  -3.3344   0.0000   3.3974
   6 F_b :2px   -0.6001  -0.1862   0.0000  -0.0806
   7 F_b :3d1+  -0.0109   0.0073   0.0000  -0.0064
   8 F_b :3d1+   0.0895   0.0778   0.0000   0.0186
   9 F_b :3d1+  -0.5573  -0.1821  -0.0000  -0.2889
  10 F_b :3d1+  -8.5542  -3.0982  -0.0000  -1.0295
  11 F_b :3d1+  -1.3851   1.6235  -0.0000  -1.3730
  12 F_b :4f1+   0.0039   0.0172  -0.0000  -0.0012
  13 F_b :4f3+   0.0000  -0.0000  -0.0142  -0.0000
  14 F_b :4f1+  -0.0579  -0.1138  -0.0000   0.0071
  15 F_b :4f3+  -0.0000   0.0000   0.0779   0.0000
  16 F_b :4f1+   1.0539   1.4789   0.0000  -0.2835
  17 F_b :4f3+   0.0000  -0.0000  -0.4590  -0.0000
  18 F_b :4f1+   2.4233   0.1410   0.0000   0.9835
  19 F_b :4f3+  -0.0000   0.0000   0.9512   0.0000
  20 F_b :5g1+   0.0082   0.0065   0.0000  -0.0366
  21 F_b :5g3+  -0.0000   0.0000  -0.0279   0.0000
  22 F_b :5g1+  -0.0709  -0.0611   0.0000   0.2335
  23 F_b :5g3+   0.0000  -0.0000   0.1475  -0.0000
  24 F_b :5g1+  -0.4892  -0.4678   0.0000  -1.1655
  25 F_b :5g3+  -0.0000   0.0000  -1.1011   0.0000

 Molecular orbitals for symmetry species 7  (B3g)
 ------------------------------------------------

    Orbital         1        2        3        4        5        6        7
   1 F_b :2py    0.7450  -0.0183  -0.1063   0.0249   0.2399   0.0000   0.0969
   2 F_b :2py   -0.0004  -0.0017   0.0075   0.0159   0.0228  -0.0000  -0.0462
   3 F_b :2py   -0.0038   0.0124  -0.0571  -0.0458  -0.1645  -0.0000   0.1536
   4 F_b :2py    0.0712  -0.4590   1.9928   0.3720   6.9208  -0.0000  -1.1556
   5 F_b :2py    0.0576  -1.0917   6.2407  18.5820   4.6810   0.0000 -10.1852
   6 F_b :2py   -0.0050   3.0829  -1.8316  -0.2612  -0.9811   0.0000  -0.0098
   8 F_b :3d1-   0.0006  -0.0030   0.0140   0.0011   0.0320  -0.0000  -0.0119
   9 F_b :3d1-   0.0001   0.0231  -0.0877   0.0013  -0.2898   0.0000  -0.0486
  10 F_b :3d1-  -0.0429   0.3629  -1.6234   0.0225  -5.6226  -0.0000  -0.3131
  11 F_b :3d1-  -0.0143   0.2387  -1.4269  -7.4192  -1.0292  -0.0000   4.3155
  14 F_b :4f3-  -0.0000   0.0000   0.0000  -0.0000  -0.0000   0.0552  -0.0000
  15 F_b :4f1-   0.0009   0.0026  -0.0111   0.0108  -0.0358   0.0000  -0.0375
  16 F_b :4f3-   0.0000  -0.0000  -0.0000   0.0000   0.0000  -0.2252   0.0000
  17 F_b :4f1-   0.0040  -0.0413   0.1716  -0.0845   0.5681  -0.0000   0.2901
  18 F_b :4f3-  -0.0000   0.0000   0.0000  -0.0000  -0.0000   1.2329  -0.0000
  19 F_b :4f1-   0.0138  -0.1168   0.5467   0.2818   1.8250   0.0000  -1.1167
  22 F_b :5g3-   0.0000  -0.0000  -0.0000   0.0000   0.0000   0.0201   0.0000
  23 F_b :5g1-  -0.0005   0.0021  -0.0078   0.0093  -0.0268   0.0000  -0.0283
  24 F_b :5g3-  -0.0000   0.0000   0.0000  -0.0000  -0.0000  -0.0999  -0.0000
  25 F_b :5g1-  -0.0015   0.0203  -0.0880  -0.0088  -0.2865   0.0000   0.0057

    Orbital         8        9       10       11
   1 F_b :2py   -0.4840   0.1122  -0.0000   0.0709
   2 F_b :2py    0.0773  -0.0871   0.0000  -0.0245
   3 F_b :2py   -0.6063   0.2620   0.0000   0.2801
   4 F_b :2py   13.1861   3.7775   0.0000   2.1454
   5 F_b :2py    4.8300  -3.3344  -0.0000   3.3974
   6 F_b :2py   -0.6001  -0.1862   0.0000  -0.0806
   7 F_b :3d1-  -0.0109   0.0073   0.0000  -0.0064
   8 F_b :3d1-   0.0895   0.0778   0.0000   0.0186
   9 F_b :3d1-  -0.5573  -0.1821  -0.0000  -0.2889
  10 F_b :3d1-  -8.5542  -3.0982   0.0000  -1.0295
  11 F_b :3d1-  -1.3851   1.6235   0.0000  -1.3730
  12 F_b :4f3-   0.0000  -0.0000  -0.0142  -0.0000
  13 F_b :4f1-   0.0039   0.0172  -0.0000  -0.0012
  14 F_b :4f3-   0.0000  -0.0000   0.0779  -0.0000
  15 F_b :4f1-  -0.0579  -0.1138  -0.0000   0.0071
  16 F_b :4f3-  -0.0000   0.0000  -0.4590   0.0000
  17 F_b :4f1-   1.0539   1.4789   0.0000  -0.2835
  18 F_b :4f3-   0.0000  -0.0000   0.9512  -0.0000
  19 F_b :4f1-   2.4233   0.1410  -0.0000   0.9835
  20 F_b :5g3-   0.0000  -0.0000  -0.0279  -0.0000
  21 F_b :5g1-   0.0082   0.0065   0.0000  -0.0366
  22 F_b :5g3-  -0.0000   0.0000   0.1475   0.0000
  23 F_b :5g1-  -0.0709  -0.0611  -0.0000   0.2335
  24 F_b :5g3-   0.0000  -0.0000  -1.1011  -0.0000
  25 F_b :5g1-  -0.4892  -0.4678  -0.0000  -1.1655

 Molecular orbitals for symmetry species 8  (Au )
 ------------------------------------------------

    Orbital         1        2        3        4        5        6        7
   1 F_b :3d2-  -0.0017   0.0005   0.0034   0.0000   0.0312   0.0149  -0.0224
   2 F_b :3d2-   0.0055  -0.0221  -0.0477   0.0000  -0.0256  -0.0413  -0.0000
   3 F_b :3d2-  -0.0337   0.0268   0.1326   0.0000   0.7680   0.4258  -0.8703
   4 F_b :3d2-  -0.0599   0.8948  -4.1240   0.0000  -3.7972   2.8848  -3.6781
   5 F_b :3d2-  -1.8136   1.3655  -0.5251   0.0000   0.0304   0.6851  -0.0555
   6 F_b :4f2-  -0.0014   0.0027   0.0033   0.0000   0.0148   0.0050   0.0338
   7 F_b :4f2-   0.0087  -0.0211  -0.0266   0.0000  -0.1149  -0.0109  -0.2328
   8 F_b :4f2-  -0.0353   0.0461   0.2492   0.0000   0.8986  -0.1238   2.5498
   9 F_b :4f2-   0.3230  -1.7975   2.8686   0.0000   1.8550  -2.2616   1.7023
  10 F_b :5g4-   0.0000   0.0000   0.0000   0.0322   0.0000   0.0000   0.0000
  11 F_b :5g2-  -0.0020   0.0079  -0.0087   0.0000  -0.0068   0.0273  -0.0091
  12 F_b :5g4-   0.0000   0.0000   0.0000  -0.1631   0.0000   0.0000   0.0000
  13 F_b :5g2-   0.0102  -0.0412   0.0475   0.0000   0.0405  -0.1450   0.0549
  14 F_b :5g4-   0.0000   0.0000   0.0000   0.9216   0.0000   0.0000   0.0000
  15 F_b :5g2-  -0.0391   0.2463  -0.5380   0.0000  -0.9911   1.3501  -1.6908

    Orbital         8        9       10
   1 F_b :3d2-   0.0000  -0.0137  -0.0267
   2 F_b :3d2-   0.0000   0.5277   0.9010
   3 F_b :3d2-   0.0000  -0.2825  -1.2492
   4 F_b :3d2-   0.0000   0.1562  -0.5396
   5 F_b :3d2-   0.0000  -0.3038   0.0455
   6 F_b :4f2-   0.0000  -0.0377   0.0292
   7 F_b :4f2-   0.0000   0.6148  -0.6074
   8 F_b :4f2-   0.0000  -0.7734   1.5373
   9 F_b :4f2-   0.0000   0.3321   0.0910
  10 F_b :5g4-   0.1149   0.0000   0.0000
  11 F_b :5g2-   0.0000  -0.0779   0.0508
  12 F_b :5g4-  -0.9333   0.0000   0.0000
  13 F_b :5g2-   0.0000   0.6362  -0.4164
  14 F_b :5g4-   0.4491   0.0000   0.0000
  15 F_b :5g2-   0.0000  -0.1551  -0.4984

  Total CPU  time used in SIRIUS :  15.43 seconds
  Total wall time used in SIRIUS :  15.44 seconds

 
     Date and time (Linux)  : Wed Jan 11 14:17:04 2023
     Host name              : cn040                                   


                     .---------------------------------------.
                     | End of Wave Function Section (SIRIUS) |
                     `---------------------------------------'



                 .------------------------------------------------.
                 | Starting in Dynamic Property Section (RESPONS) |
                 `------------------------------------------------'


 ----------------------------------------------------------------------------------------
  RESPONSE  -  an MCSCF, MC-srDFT, DFT, SOPPA and SOPPA-srDFT response property program
 ----------------------------------------------------------------------------------------


 -------- OUTPUT FROM RESPONSE INPUT PROCESSING --------




 Linear Response calculation
 ---------------------------

 Print level                                    : IPRLR  =   2
 Maximum number of iterations                   : MAXITL =  60
 Threshold for relative convergence             : THCLR  = 1.000D-03
 Maximum iterations in optimal orbital algorithm: MAXITO =   5

  9 B-frequencies  0.000000D+00  1.101744D-02  2.203487D-02  3.305231D-02  4.406975D-02
  5.508719D-02  6.610463D-02  7.712206D-02  8.813950D-02

    1 second order properties calculated with symmetry no.    2 and labels:

          XDIPLEN 

    1 second order properties calculated with symmetry no.    3 and labels:

          YDIPLEN 

    1 second order properties calculated with symmetry no.    5 and labels:

          ZDIPLEN 


   SCF energy         :     -198.769208579009103
 -- inactive part     :     -229.127208099277766
 -- nuclear repulsion :       30.357999520268653


                     ***************************************
                     *** RHF response calculation (TDHF) ***
                     ***************************************

 ----------------------------------------------------------------
 ----- Linear response calculation
 ----- Symmetry of excitation/property operator(s)    2  ( B3u)
 ----------------------------------------------------------------

 Number of excitations of this symmetry            0
 Number of response properties of this symmetry    1
 Number of C6/C8 properties of this symmetry       0


 Perturbation symmetry.     KSYMOP:           2
 Perturbation spin symmetry.TRPLET:           F
 Orbital variables.         KZWOPT:         225
 Configuration variables.   KZCONF:           0
 Total number of variables. KZVAR :         225


 RSPLR -- linear response calculation for symmetry 2  ( B3u)
 RSPLR -- operator label : XDIPLEN 
 RSPLR -- operator spin  :   0
 RSPLR -- frequencies    :     0.000000  0.011017  0.022035  0.033052  0.044070
                               0.055087  0.066105  0.077122  0.088139



 ---  SOLVING SETS OF LINEAR EQUATIONS FOR LINEAR RESPONSE PROPERTIES ---

 Operator symmetry = 2  ( B3u); triplet =   F

RSPORT:    2 out of    9 new trial vectors linear dependent

 ** RSPCTL MICROITERATION NUMBER    1

       No.  Residual tot.,    conf., and orb.    Bnorm      Frequency 
      ----------------------------------------------------------------
         1    6.68169D-01  0.00D+00  6.68D-01  1.52D+00    0.00000D+00
         2    6.68234D-01  0.00D+00  6.68D-01  1.52D+00    1.10174D-02
         3    6.68427D-01  0.00D+00  6.68D-01  1.53D+00    2.20349D-02
         4    6.68751D-01  0.00D+00  6.69D-01  1.53D+00    3.30523D-02
         5    6.69205D-01  0.00D+00  6.69D-01  1.53D+00    4.40697D-02
         6    6.69791D-01  0.00D+00  6.70D-01  1.53D+00    5.50872D-02
         7    6.70511D-01  0.00D+00  6.71D-01  1.54D+00    6.61046D-02
         8    6.71366D-01  0.00D+00  6.71D-01  1.54D+00    7.71221D-02
         9    6.72359D-01  0.00D+00  6.72D-01  1.55D+00    8.81395D-02

 ** RSPCTL MICROITERATION NUMBER    2

       No.  Residual tot.,    conf., and orb.    Bnorm      Frequency 
      ----------------------------------------------------------------
         1    7.23340D-02  0.00D+00  7.23D-02  1.57D+00    0.00000D+00
         2    7.23980D-02  0.00D+00  7.24D-02  1.57D+00    1.10174D-02
         3    7.25932D-02  0.00D+00  7.26D-02  1.57D+00    2.20349D-02
         4    7.29292D-02  0.00D+00  7.29D-02  1.57D+00    3.30523D-02
         5    7.34236D-02  0.00D+00  7.34D-02  1.58D+00    4.40697D-02
         6    7.41043D-02  0.00D+00  7.41D-02  1.58D+00    5.50872D-02
         7    7.50141D-02  0.00D+00  7.50D-02  1.59D+00    6.61046D-02
         8    7.62182D-02  0.00D+00  7.62D-02  1.59D+00    7.71221D-02
         9    7.78173D-02  0.00D+00  7.78D-02  1.60D+00    8.81395D-02

 ** RSPCTL MICROITERATION NUMBER    3

       No.  Residual tot.,    conf., and orb.    Bnorm      Frequency 
      ----------------------------------------------------------------
         1    4.37218D-03  0.00D+00  4.37D-03  1.57D+00    0.00000D+00
         2    4.38284D-03  0.00D+00  4.38D-03  1.57D+00    1.10174D-02
         3    4.41541D-03  0.00D+00  4.42D-03  1.57D+00    2.20349D-02
         4    4.47180D-03  0.00D+00  4.47D-03  1.57D+00    3.30523D-02
         5    4.55545D-03  0.00D+00  4.56D-03  1.58D+00    4.40697D-02
         6    4.67188D-03  0.00D+00  4.67D-03  1.58D+00    5.50872D-02
         7    4.82965D-03  0.00D+00  4.83D-03  1.59D+00    6.61046D-02
         8    5.04190D-03  0.00D+00  5.04D-03  1.59D+00    7.71221D-02
         9    5.32930D-03  0.00D+00  5.33D-03  1.60D+00    8.81395D-02

 ** RSPCTL MICROITERATION NUMBER    4

       No.  Residual tot.,    conf., and orb.    Bnorm      Frequency 
      ----------------------------------------------------------------
         1    3.70908D-04  0.00D+00  3.71D-04  1.57D+00    0.00000D+00
         2    3.72532D-04  0.00D+00  3.73D-04  1.57D+00    1.10174D-02
         3    3.77487D-04  0.00D+00  3.77D-04  1.57D+00    2.20349D-02
         4    3.86031D-04  0.00D+00  3.86D-04  1.57D+00    3.30523D-02
         5    3.98629D-04  0.00D+00  3.99D-04  1.58D+00    4.40697D-02
         6    4.16023D-04  0.00D+00  4.16D-04  1.58D+00    5.50872D-02
         7    4.39341D-04  0.00D+00  4.39D-04  1.59D+00    6.61046D-02
         8    4.70303D-04  0.00D+00  4.70D-04  1.59D+00    7.71221D-02
         9    5.11569D-04  0.00D+00  5.12D-04  1.60D+00    8.81395D-02

 *** THE REQUESTED    9 SOLUTION VECTORS CONVERGED

 Convergence of RSP solution vectors, threshold = 1.00D-03
 ---------------------------------------------------------------
 (dimension of paired reduced space:   68)
 RSP solution vector no.    1; norm of residual   2.36D-04
 RSP solution vector no.    2; norm of residual   2.37D-04
 RSP solution vector no.    3; norm of residual   2.40D-04
 RSP solution vector no.    4; norm of residual   2.45D-04
 RSP solution vector no.    5; norm of residual   2.53D-04
 RSP solution vector no.    6; norm of residual   2.63D-04
 RSP solution vector no.    7; norm of residual   2.77D-04
 RSP solution vector no.    8; norm of residual   2.95D-04
 RSP solution vector no.    9; norm of residual   3.19D-04

 *** RSPCTL MICROITERATIONS CONVERGED


           Final output of second order properties from linear response
           ------------------------------------------------------------


@ Spin symmetry of operators: singlet

 Note that minus the linear response function: - << A; B >>(omega) is printed.
 The results are of quadratic accuracy using Sellers formula.

@ FREQUENCY INDEPENDENT SECOND ORDER PROPERTIES

@ -<< XDIPLEN  ; XDIPLEN  >> =  5.566949445708E+00

@ FREQUENCY DEPENDENT SECOND ORDER PROPERTIES WITH FREQUENCY :

@    a.u.:  1.1017437D-02
@    cm-1:  2.4180480D+03
@    eV  :  2.9979972D-01
@  kJ/mol:  2.8926278D+01
@    nm  :  4.1355672D+03

@ -<< XDIPLEN  ; XDIPLEN  >> =  5.567689455388E+00

@ FREQUENCY DEPENDENT SECOND ORDER PROPERTIES WITH FREQUENCY :

@    a.u.:  2.2034875D-02
@    cm-1:  4.8360960D+03
@    eV  :  5.9959945D-01
@  kJ/mol:  5.7852555D+01
@    nm  :  2.0677836D+03

@ -<< XDIPLEN  ; XDIPLEN  >> =  5.569912023708E+00

@ FREQUENCY DEPENDENT SECOND ORDER PROPERTIES WITH FREQUENCY :

@    a.u.:  3.3052313D-02
@    cm-1:  7.2541440D+03
@    eV  :  8.9939917D-01
@  kJ/mol:  8.6778833D+01
@    nm  :  1.3785224D+03

@ -<< XDIPLEN  ; XDIPLEN  >> =  5.573624869071E+00

@ FREQUENCY DEPENDENT SECOND ORDER PROPERTIES WITH FREQUENCY :

@    a.u.:  4.4069750D-02
@    cm-1:  9.6721920D+03
@    eV  :  1.1991989D+00
@  kJ/mol:  1.1570511D+02
@    nm  :  1.0338918D+03

@ -<< XDIPLEN  ; XDIPLEN  >> =  5.578841210911E+00

@ FREQUENCY DEPENDENT SECOND ORDER PROPERTIES WITH FREQUENCY :

@    a.u.:  5.5087187D-02
@    cm-1:  1.2090240D+04
@    eV  :  1.4989986D+00
@  kJ/mol:  1.4463139D+02
@    nm  :  8.2711344D+02

@ -<< XDIPLEN  ; XDIPLEN  >> =  5.585580381412E+00

@ FREQUENCY DEPENDENT SECOND ORDER PROPERTIES WITH FREQUENCY :

@    a.u.:  6.6104625D-02
@    cm-1:  1.4508288D+04
@    eV  :  1.7987983D+00
@  kJ/mol:  1.7355767D+02
@    nm  :  6.8926120D+02

@ -<< XDIPLEN  ; XDIPLEN  >> =  5.593868871632E+00

@ FREQUENCY DEPENDENT SECOND ORDER PROPERTIES WITH FREQUENCY :

@    a.u.:  7.7122062D-02
@    cm-1:  1.6926336D+04
@    eV  :  2.0985981D+00
@  kJ/mol:  2.0248394D+02
@    nm  :  5.9079531D+02

@ -<< XDIPLEN  ; XDIPLEN  >> =  5.603742098818E+00

@ FREQUENCY DEPENDENT SECOND ORDER PROPERTIES WITH FREQUENCY :

@    a.u.:  8.8139500D-02
@    cm-1:  1.9344384D+04
@    eV  :  2.3983978D+00
@  kJ/mol:  2.3141022D+02
@    nm  :  5.1694590D+02

@ -<< XDIPLEN  ; XDIPLEN  >> =  5.615247476497E+00


 Time used in linear response calculation is     13.92 CPU seconds for symmetry 2
 ----------------------------------------------------------------
 ----- Linear response calculation
 ----- Symmetry of excitation/property operator(s)    3  ( B2u)
 ----------------------------------------------------------------

 Number of excitations of this symmetry            0
 Number of response properties of this symmetry    1
 Number of C6/C8 properties of this symmetry       0


 Perturbation symmetry.     KSYMOP:           3
 Perturbation spin symmetry.TRPLET:           F
 Orbital variables.         KZWOPT:         225
 Configuration variables.   KZCONF:           0
 Total number of variables. KZVAR :         225


 RSPLR -- linear response calculation for symmetry 3  ( B2u)
 RSPLR -- operator label : YDIPLEN 
 RSPLR -- operator spin  :   0
 RSPLR -- frequencies    :     0.000000  0.011017  0.022035  0.033052  0.044070
                               0.055087  0.066105  0.077122  0.088139



 ---  SOLVING SETS OF LINEAR EQUATIONS FOR LINEAR RESPONSE PROPERTIES ---

 Operator symmetry = 3  ( B2u); triplet =   F

RSPORT:    2 out of    9 new trial vectors linear dependent

 ** RSPCTL MICROITERATION NUMBER    1

       No.  Residual tot.,    conf., and orb.    Bnorm      Frequency 
      ----------------------------------------------------------------
         1    6.61793D-01  0.00D+00  6.62D-01  1.52D+00    0.00000D+00
         2    6.61859D-01  0.00D+00  6.62D-01  1.52D+00    1.10174D-02
         3    6.62055D-01  0.00D+00  6.62D-01  1.53D+00    2.20349D-02
         4    6.62382D-01  0.00D+00  6.62D-01  1.53D+00    3.30523D-02
         5    6.62841D-01  0.00D+00  6.63D-01  1.53D+00    4.40697D-02
         6    6.63433D-01  0.00D+00  6.63D-01  1.53D+00    5.50872D-02
         7    6.64161D-01  0.00D+00  6.64D-01  1.54D+00    6.61046D-02
         8    6.65026D-01  0.00D+00  6.65D-01  1.54D+00    7.71221D-02
         9    6.66030D-01  0.00D+00  6.66D-01  1.55D+00    8.81395D-02

 ** RSPCTL MICROITERATION NUMBER    2

       No.  Residual tot.,    conf., and orb.    Bnorm      Frequency 
      ----------------------------------------------------------------
         1    7.27566D-02  0.00D+00  7.28D-02  1.57D+00    0.00000D+00
         2    7.28228D-02  0.00D+00  7.28D-02  1.57D+00    1.10174D-02
         3    7.30246D-02  0.00D+00  7.30D-02  1.57D+00    2.20349D-02
         4    7.33719D-02  0.00D+00  7.34D-02  1.57D+00    3.30523D-02
         5    7.38827D-02  0.00D+00  7.39D-02  1.58D+00    4.40697D-02
         6    7.45855D-02  0.00D+00  7.46D-02  1.58D+00    5.50872D-02
         7    7.55238D-02  0.00D+00  7.55D-02  1.59D+00    6.61046D-02
         8    7.67633D-02  0.00D+00  7.68D-02  1.59D+00    7.71221D-02
         9    7.84052D-02  0.00D+00  7.84D-02  1.60D+00    8.81395D-02

 ** RSPCTL MICROITERATION NUMBER    3

       No.  Residual tot.,    conf., and orb.    Bnorm      Frequency 
      ----------------------------------------------------------------
         1    4.23267D-03  0.00D+00  4.23D-03  1.57D+00    0.00000D+00
         2    4.24339D-03  0.00D+00  4.24D-03  1.57D+00    1.10174D-02
         3    4.27616D-03  0.00D+00  4.28D-03  1.57D+00    2.20349D-02
         4    4.33293D-03  0.00D+00  4.33D-03  1.57D+00    3.30523D-02
         5    4.41725D-03  0.00D+00  4.42D-03  1.58D+00    4.40697D-02
         6    4.53483D-03  0.00D+00  4.53D-03  1.58D+00    5.50872D-02
         7    4.69447D-03  0.00D+00  4.69D-03  1.59D+00    6.61046D-02
         8    4.90971D-03  0.00D+00  4.91D-03  1.59D+00    7.71221D-02
         9    5.20187D-03  0.00D+00  5.20D-03  1.60D+00    8.81395D-02

 ** RSPCTL MICROITERATION NUMBER    4

       No.  Residual tot.,    conf., and orb.    Bnorm      Frequency 
      ----------------------------------------------------------------
         1    3.34746D-04  0.00D+00  3.35D-04  1.57D+00    0.00000D+00
         2    3.36162D-04  0.00D+00  3.36D-04  1.57D+00    1.10174D-02
         3    3.40476D-04  0.00D+00  3.40D-04  1.57D+00    2.20349D-02
         4    3.47899D-04  0.00D+00  3.48D-04  1.57D+00    3.30523D-02
         5    3.58816D-04  0.00D+00  3.59D-04  1.58D+00    4.40697D-02
         6    3.73837D-04  0.00D+00  3.74D-04  1.58D+00    5.50872D-02
         7    3.93895D-04  0.00D+00  3.94D-04  1.59D+00    6.61046D-02
         8    4.20417D-04  0.00D+00  4.20D-04  1.59D+00    7.71221D-02
         9    4.55616D-04  0.00D+00  4.56D-04  1.60D+00    8.81395D-02

 *** THE REQUESTED    9 SOLUTION VECTORS CONVERGED

 Convergence of RSP solution vectors, threshold = 1.00D-03
 ---------------------------------------------------------------
 (dimension of paired reduced space:   68)
 RSP solution vector no.    1; norm of residual   2.13D-04
 RSP solution vector no.    2; norm of residual   2.14D-04
 RSP solution vector no.    3; norm of residual   2.17D-04
 RSP solution vector no.    4; norm of residual   2.21D-04
 RSP solution vector no.    5; norm of residual   2.28D-04
 RSP solution vector no.    6; norm of residual   2.36D-04
 RSP solution vector no.    7; norm of residual   2.48D-04
 RSP solution vector no.    8; norm of residual   2.64D-04
 RSP solution vector no.    9; norm of residual   2.84D-04

 *** RSPCTL MICROITERATIONS CONVERGED


           Final output of second order properties from linear response
           ------------------------------------------------------------


@ Spin symmetry of operators: singlet

 Note that minus the linear response function: - << A; B >>(omega) is printed.
 The results are of quadratic accuracy using Sellers formula.

@ FREQUENCY INDEPENDENT SECOND ORDER PROPERTIES

@ -<< YDIPLEN  ; YDIPLEN  >> =  5.566949448351E+00

@ FREQUENCY DEPENDENT SECOND ORDER PROPERTIES WITH FREQUENCY :

@    a.u.:  1.1017437D-02
@    cm-1:  2.4180480D+03
@    eV  :  2.9979972D-01
@  kJ/mol:  2.8926278D+01
@    nm  :  4.1355672D+03

@ -<< YDIPLEN  ; YDIPLEN  >> =  5.567689458034E+00

@ FREQUENCY DEPENDENT SECOND ORDER PROPERTIES WITH FREQUENCY :

@    a.u.:  2.2034875D-02
@    cm-1:  4.8360960D+03
@    eV  :  5.9959945D-01
@  kJ/mol:  5.7852555D+01
@    nm  :  2.0677836D+03

@ -<< YDIPLEN  ; YDIPLEN  >> =  5.569912026366E+00

@ FREQUENCY DEPENDENT SECOND ORDER PROPERTIES WITH FREQUENCY :

@    a.u.:  3.3052313D-02
@    cm-1:  7.2541440D+03
@    eV  :  8.9939917D-01
@  kJ/mol:  8.6778833D+01
@    nm  :  1.3785224D+03

@ -<< YDIPLEN  ; YDIPLEN  >> =  5.573624871747E+00

@ FREQUENCY DEPENDENT SECOND ORDER PROPERTIES WITH FREQUENCY :

@    a.u.:  4.4069750D-02
@    cm-1:  9.6721920D+03
@    eV  :  1.1991989D+00
@  kJ/mol:  1.1570511D+02
@    nm  :  1.0338918D+03

@ -<< YDIPLEN  ; YDIPLEN  >> =  5.578841213611E+00

@ FREQUENCY DEPENDENT SECOND ORDER PROPERTIES WITH FREQUENCY :

@    a.u.:  5.5087187D-02
@    cm-1:  1.2090240D+04
@    eV  :  1.4989986D+00
@  kJ/mol:  1.4463139D+02
@    nm  :  8.2711344D+02

@ -<< YDIPLEN  ; YDIPLEN  >> =  5.585580384142E+00

@ FREQUENCY DEPENDENT SECOND ORDER PROPERTIES WITH FREQUENCY :

@    a.u.:  6.6104625D-02
@    cm-1:  1.4508288D+04
@    eV  :  1.7987983D+00
@  kJ/mol:  1.7355767D+02
@    nm  :  6.8926120D+02

@ -<< YDIPLEN  ; YDIPLEN  >> =  5.593868874393E+00

@ FREQUENCY DEPENDENT SECOND ORDER PROPERTIES WITH FREQUENCY :

@    a.u.:  7.7122062D-02
@    cm-1:  1.6926336D+04
@    eV  :  2.0985981D+00
@  kJ/mol:  2.0248394D+02
@    nm  :  5.9079531D+02

@ -<< YDIPLEN  ; YDIPLEN  >> =  5.603742101605E+00

@ FREQUENCY DEPENDENT SECOND ORDER PROPERTIES WITH FREQUENCY :

@    a.u.:  8.8139500D-02
@    cm-1:  1.9344384D+04
@    eV  :  2.3983978D+00
@  kJ/mol:  2.3141022D+02
@    nm  :  5.1694590D+02

@ -<< YDIPLEN  ; YDIPLEN  >> =  5.615247479298E+00


 Time used in linear response calculation is     13.91 CPU seconds for symmetry 3
 ----------------------------------------------------------------
 ----- Linear response calculation
 ----- Symmetry of excitation/property operator(s)    5  ( B1u)
 ----------------------------------------------------------------

 Number of excitations of this symmetry            0
 Number of response properties of this symmetry    1
 Number of C6/C8 properties of this symmetry       0


 Perturbation symmetry.     KSYMOP:           5
 Perturbation spin symmetry.TRPLET:           F
 Orbital variables.         KZWOPT:         284
 Configuration variables.   KZCONF:           0
 Total number of variables. KZVAR :         284


 RSPLR -- linear response calculation for symmetry 5  ( B1u)
 RSPLR -- operator label : ZDIPLEN 
 RSPLR -- operator spin  :   0
 RSPLR -- frequencies    :     0.000000  0.011017  0.022035  0.033052  0.044070
                               0.055087  0.066105  0.077122  0.088139



 ---  SOLVING SETS OF LINEAR EQUATIONS FOR LINEAR RESPONSE PROPERTIES ---

 Operator symmetry = 5  ( B1u); triplet =   F

RSPORT:    2 out of    9 new trial vectors linear dependent

 ** RSPCTL MICROITERATION NUMBER    1

       No.  Residual tot.,    conf., and orb.    Bnorm      Frequency 
      ----------------------------------------------------------------
         1    3.74744D+00  0.00D+00  3.75D+00  2.40D+00    0.00000D+00
         2    3.74873D+00  0.00D+00  3.75D+00  2.40D+00    1.10174D-02
         3    3.75262D+00  0.00D+00  3.75D+00  2.40D+00    2.20349D-02
         4    3.75911D+00  0.00D+00  3.76D+00  2.41D+00    3.30523D-02
         5    3.76825D+00  0.00D+00  3.77D+00  2.42D+00    4.40697D-02
         6    3.78005D+00  0.00D+00  3.78D+00  2.43D+00    5.50872D-02
         7    3.79459D+00  0.00D+00  3.79D+00  2.45D+00    6.61046D-02
         8    3.81192D+00  0.00D+00  3.81D+00  2.47D+00    7.71221D-02
         9    3.83211D+00  0.00D+00  3.83D+00  2.49D+00    8.81395D-02

 ** RSPCTL MICROITERATION NUMBER    2

       No.  Residual tot.,    conf., and orb.    Bnorm      Frequency 
      ----------------------------------------------------------------
         1    1.06926D+00  0.00D+00  1.07D+00  3.36D+00    0.00000D+00
         2    1.06989D+00  0.00D+00  1.07D+00  3.36D+00    1.10174D-02
         3    1.07180D+00  0.00D+00  1.07D+00  3.37D+00    2.20349D-02
         4    1.07498D+00  0.00D+00  1.07D+00  3.38D+00    3.30523D-02
         5    1.07947D+00  0.00D+00  1.08D+00  3.40D+00    4.40697D-02
         6    1.08529D+00  0.00D+00  1.09D+00  3.42D+00    5.50872D-02
         7    1.09249D+00  0.00D+00  1.09D+00  3.45D+00    6.61046D-02
         8    1.10111D+00  0.00D+00  1.10D+00  3.49D+00    7.71221D-02
         9    1.11121D+00  0.00D+00  1.11D+00  3.53D+00    8.81395D-02

 ** RSPCTL MICROITERATION NUMBER    3

       No.  Residual tot.,    conf., and orb.    Bnorm      Frequency 
      ----------------------------------------------------------------
         1    1.41503D-01  0.00D+00  1.42D-01  3.42D+00    0.00000D+00
         2    1.41601D-01  0.00D+00  1.42D-01  3.43D+00    1.10174D-02
         3    1.41897D-01  0.00D+00  1.42D-01  3.44D+00    2.20349D-02
         4    1.42393D-01  0.00D+00  1.42D-01  3.45D+00    3.30523D-02
         5    1.43092D-01  0.00D+00  1.43D-01  3.47D+00    4.40697D-02
         6    1.43999D-01  0.00D+00  1.44D-01  3.49D+00    5.50872D-02
         7    1.45121D-01  0.00D+00  1.45D-01  3.52D+00    6.61046D-02
         8    1.46466D-01  0.00D+00  1.46D-01  3.56D+00    7.71221D-02
         9    1.48043D-01  0.00D+00  1.48D-01  3.60D+00    8.81395D-02

 ** RSPCTL MICROITERATION NUMBER    4

       No.  Residual tot.,    conf., and orb.    Bnorm      Frequency 
      ----------------------------------------------------------------
         1    1.01087D-02  0.00D+00  1.01D-02  3.42D+00    0.00000D+00
         2    1.01171D-02  0.00D+00  1.01D-02  3.43D+00    1.10174D-02
         3    1.01421D-02  0.00D+00  1.01D-02  3.44D+00    2.20349D-02
         4    1.01842D-02  0.00D+00  1.02D-02  3.45D+00    3.30523D-02
         5    1.02434D-02  0.00D+00  1.02D-02  3.47D+00    4.40697D-02
         6    1.03204D-02  0.00D+00  1.03D-02  3.49D+00    5.50872D-02
         7    1.04157D-02  0.00D+00  1.04D-02  3.52D+00    6.61046D-02
         8    1.05300D-02  0.00D+00  1.05D-02  3.56D+00    7.71221D-02
         9    1.06643D-02  0.00D+00  1.07D-02  3.61D+00    8.81395D-02

 ** RSPCTL MICROITERATION NUMBER    5

       No.  Residual tot.,    conf., and orb.    Bnorm      Frequency 
      ----------------------------------------------------------------
         1    7.46486D-04  0.00D+00  7.46D-04  3.42D+00    0.00000D+00
         2    7.47215D-04  0.00D+00  7.47D-04  3.43D+00    1.10174D-02
         3    7.49408D-04  0.00D+00  7.49D-04  3.44D+00    2.20349D-02
         4    7.53083D-04  0.00D+00  7.53D-04  3.45D+00    3.30523D-02
         5    7.58273D-04  0.00D+00  7.58D-04  3.47D+00    4.40697D-02
         6    7.65024D-04  0.00D+00  7.65D-04  3.49D+00    5.50872D-02
         7    7.73393D-04  0.00D+00  7.73D-04  3.52D+00    6.61046D-02
         8    7.83458D-04  0.00D+00  7.83D-04  3.56D+00    7.71221D-02
         9    7.95311D-04  0.00D+00  7.95D-04  3.61D+00    8.81395D-02

 *** THE REQUESTED    9 SOLUTION VECTORS CONVERGED

 Convergence of RSP solution vectors, threshold = 1.00D-03
 ---------------------------------------------------------------
 (dimension of paired reduced space:   86)
 RSP solution vector no.    1; norm of residual   2.18D-04
 RSP solution vector no.    2; norm of residual   2.18D-04
 RSP solution vector no.    3; norm of residual   2.18D-04
 RSP solution vector no.    4; norm of residual   2.18D-04
 RSP solution vector no.    5; norm of residual   2.19D-04
 RSP solution vector no.    6; norm of residual   2.19D-04
 RSP solution vector no.    7; norm of residual   2.19D-04
 RSP solution vector no.    8; norm of residual   2.20D-04
 RSP solution vector no.    9; norm of residual   2.21D-04

 *** RSPCTL MICROITERATIONS CONVERGED


           Final output of second order properties from linear response
           ------------------------------------------------------------


@ Spin symmetry of operators: singlet

 Note that minus the linear response function: - << A; B >>(omega) is printed.
 The results are of quadratic accuracy using Sellers formula.

@ FREQUENCY INDEPENDENT SECOND ORDER PROPERTIES

@ -<< ZDIPLEN  ; ZDIPLEN  >> =  1.464931356641E+01

@ FREQUENCY DEPENDENT SECOND ORDER PROPERTIES WITH FREQUENCY :

@    a.u.:  1.1017437D-02
@    cm-1:  2.4180480D+03
@    eV  :  2.9979972D-01
@  kJ/mol:  2.8926278D+01
@    nm  :  4.1355672D+03

@ -<< ZDIPLEN  ; ZDIPLEN  >> =  1.465541596329E+01

@ FREQUENCY DEPENDENT SECOND ORDER PROPERTIES WITH FREQUENCY :

@    a.u.:  2.2034875D-02
@    cm-1:  4.8360960D+03
@    eV  :  5.9959945D-01
@  kJ/mol:  5.7852555D+01
@    nm  :  2.0677836D+03

@ -<< ZDIPLEN  ; ZDIPLEN  >> =  1.467376123045E+01

@ FREQUENCY DEPENDENT SECOND ORDER PROPERTIES WITH FREQUENCY :

@    a.u.:  3.3052313D-02
@    cm-1:  7.2541440D+03
@    eV  :  8.9939917D-01
@  kJ/mol:  8.6778833D+01
@    nm  :  1.3785224D+03

@ -<< ZDIPLEN  ; ZDIPLEN  >> =  1.470446421857E+01

@ FREQUENCY DEPENDENT SECOND ORDER PROPERTIES WITH FREQUENCY :

@    a.u.:  4.4069750D-02
@    cm-1:  9.6721920D+03
@    eV  :  1.1991989D+00
@  kJ/mol:  1.1570511D+02
@    nm  :  1.0338918D+03

@ -<< ZDIPLEN  ; ZDIPLEN  >> =  1.474771843479E+01

@ FREQUENCY DEPENDENT SECOND ORDER PROPERTIES WITH FREQUENCY :

@    a.u.:  5.5087187D-02
@    cm-1:  1.2090240D+04
@    eV  :  1.4989986D+00
@  kJ/mol:  1.4463139D+02
@    nm  :  8.2711344D+02

@ -<< ZDIPLEN  ; ZDIPLEN  >> =  1.480379924496E+01

@ FREQUENCY DEPENDENT SECOND ORDER PROPERTIES WITH FREQUENCY :

@    a.u.:  6.6104625D-02
@    cm-1:  1.4508288D+04
@    eV  :  1.7987983D+00
@  kJ/mol:  1.7355767D+02
@    nm  :  6.8926120D+02

@ -<< ZDIPLEN  ; ZDIPLEN  >> =  1.487306849645E+01

@ FREQUENCY DEPENDENT SECOND ORDER PROPERTIES WITH FREQUENCY :

@    a.u.:  7.7122062D-02
@    cm-1:  1.6926336D+04
@    eV  :  2.0985981D+00
@  kJ/mol:  2.0248394D+02
@    nm  :  5.9079531D+02

@ -<< ZDIPLEN  ; ZDIPLEN  >> =  1.495598070988E+01

@ FREQUENCY DEPENDENT SECOND ORDER PROPERTIES WITH FREQUENCY :

@    a.u.:  8.8139500D-02
@    cm-1:  1.9344384D+04
@    eV  :  2.3983978D+00
@  kJ/mol:  2.3141022D+02
@    nm  :  5.1694590D+02

@ -<< ZDIPLEN  ; ZDIPLEN  >> =  1.505309104338E+01


 Time used in linear response calculation is     17.54 CPU seconds for symmetry 5

  Total CPU  time used in RESPONSE:  45.37 seconds
  Total wall time used in RESPONSE:  45.40 seconds


                   .-------------------------------------------.
                   | End of Dynamic Property Section (RESPONS) |
                   `-------------------------------------------'

  Total CPU  time used in DALTON:  1 minute   1 second 
  Total wall time used in DALTON:  1 minute   1 second 

 
     Date and time (Linux)  : Wed Jan 11 14:17:50 2023
     Host name              : cn040                                   
