

     ************************************************************************
     *************** Dalton - An Electronic Structure Program ***************
     ************************************************************************

    This is output from DALTON release Dalton2020.0 (2020)
         ( Web site: http://daltonprogram.org )

   ----------------------------------------------------------------------------

    NOTE:
     
    Dalton is an experimental code for the evaluation of molecular
    properties using (MC)SCF, DFT, CI, and CC wave functions.
    The authors accept no responsibility for the performance of
    the code or for the correctness of the results.
     
    The code (in whole or part) is provided under a licence and
    is not to be reproduced for further distribution without
    the written permission of the authors or their representatives.
     
    See the home page "http://daltonprogram.org" for further information.
     
    If results obtained with this code are published,
    the appropriate citations would be both of:
     
       K. Aidas, C. Angeli, K. L. Bak, V. Bakken, R. Bast,
       L. Boman, O. Christiansen, R. Cimiraglia, S. Coriani,
       P. Dahle, E. K. Dalskov, U. Ekstroem,
       T. Enevoldsen, J. J. Eriksen, P. Ettenhuber, B. Fernandez,
       L. Ferrighi, H. Fliegl, L. Frediani, K. Hald, A. Halkier,
       C. Haettig, H. Heiberg, T. Helgaker, A. C. Hennum,
       H. Hettema, E. Hjertenaes, S. Hoest, I.-M. Hoeyvik,
       M. F. Iozzi, B. Jansik, H. J. Aa. Jensen, D. Jonsson,
       P. Joergensen, J. Kauczor, S. Kirpekar,
       T. Kjaergaard, W. Klopper, S. Knecht, R. Kobayashi, H. Koch,
       J. Kongsted, A. Krapp, K. Kristensen, A. Ligabue,
       O. B. Lutnaes, J. I. Melo, K. V. Mikkelsen, R. H. Myhre,
       C. Neiss, C. B. Nielsen, P. Norman, J. Olsen,
       J. M. H. Olsen, A. Osted, M. J. Packer, F. Pawlowski,
       T. B. Pedersen, P. F. Provasi, S. Reine, Z. Rinkevicius,
       T. A. Ruden, K. Ruud, V. Rybkin, P. Salek, C. C. M. Samson,
       A. Sanchez de Meras, T. Saue, S. P. A. Sauer,
       B. Schimmelpfennig, K. Sneskov, A. H. Steindal,
       K. O. Sylvester-Hvid, P. R. Taylor, A. M. Teale,
       E. I. Tellgren, D. P. Tew, A. J. Thorvaldsen, L. Thoegersen,
       O. Vahtras, M. A. Watson, D. J. D. Wilson, M. Ziolkowski
       and H. Agren,
       "The Dalton quantum chemistry program system",
       WIREs Comput. Mol. Sci. 2014, 4:269–284 (doi: 10.1002/wcms.1172)
     
    and
     
       Dalton, a molecular electronic structure program,
       Release Dalton2020.0 (2020), see http://daltonprogram.org
   ----------------------------------------------------------------------------

    Authors in alphabetical order (Major contribution(s) in parenthesis):

  Kestutis Aidas,           Vilnius University,           Lithuania   (QM/MM)
  Celestino Angeli,         University of Ferrara,        Italy       (NEVPT2)
  Keld L. Bak,              UNI-C,                        Denmark     (AOSOPPA, non-adiabatic coupling, magnetic properties)
  Vebjoern Bakken,          University of Oslo,           Norway      (DALTON; geometry optimizer, symmetry detection)
  Radovan Bast,             UiT The Arctic U. of Norway,  Norway      (DALTON installation and execution frameworks)
  Pablo Baudin,             University of Valencia,       Spain       (Cholesky excitation energies)
  Linus Boman,              NTNU,                         Norway      (Cholesky decomposition and subsystems)
  Bruno N. Cabral Tenorio,  Technical Univ. of Denmark,   Denmark     (Lanczos-based CC methods)
  Ove Christiansen,         Aarhus University,            Denmark     (CC module)
  Renzo Cimiraglia,         University of Ferrara,        Italy       (NEVPT2)
  Sonia Coriani,            Technical Univ. of Denmark,   Denmark     (CC and RESPONS modules)
  Janusz Cukras,            University of Warsaw,         Poland      (MChD in RESPONS)
  Paal Dahle,               University of Oslo,           Norway      (Parallelization)
  Erik K. Dalskov,          UNI-C,                        Denmark     (SOPPA)
  Thomas Enevoldsen,        Univ. of Southern Denmark,    Denmark     (SOPPA)
  Janus J. Eriksen,         Aarhus University,            Denmark     (Polarizable embedding, TDA)
  Rasmus Faber,             Technical Univ. of Denmark,   Denmark     (Vib.avg. NMR w. SOPPA, parallel AO-SOPPA, CVS-CC and EOMCC)
  Tobias Fahleson,          KTH Stockholm,                Sweden      (Damped cubic response)
  Berta Fernandez,          U. of Santiago de Compostela, Spain       (Doublet spin, ESR in RESPONS)
  Lara Ferrighi,            Aarhus University,            Denmark     (PCM Cubic response)
  Heike Fliegl,             University of Oslo,           Norway      (CCSD(R12))
  Luca Frediani,            UiT The Arctic U. of Norway,  Norway      (PCM)
  Emmanuel Fromager,        Univ. Strasbourg,             France      (MC-srDFT)
  Bin Gao,                  UiT The Arctic U. of Norway,  Norway      (Gen1Int library)
  Andre S. P. Gomes,        CNRS/Universite de Lille,     France      (Frozen density embedding)
  Christof Haettig,         Ruhr-University Bochum,       Germany     (CC module)
  Kasper Hald,              Aarhus University,            Denmark     (CC module)
  Asger Halkier,            Aarhus University,            Denmark     (CC module)
  Frederik Beyer Hansen,    University of Copenhagen,     Denmark     (Parallel AO-SOPPA)
  Erik D. Hedegaard,        Univ. of Southern Denmark,    Denmark     (Polarizable embedding, QM/MM, and MC-srDFT)
  Hanne Heiberg,            University of Oslo,           Norway      (Geometry analysis, selected one-electron integrals)
  Trygve Helgaker,          University of Oslo,           Norway      (DALTON; ABACUS, ERI, DFT modules, London, and much more)
  Alf Christian Hennum,     University of Oslo,           Norway      (Parity violation)
  Hinne Hettema,            University of Auckland,       New Zealand (Quadratic response in RESPONS; SIRIUS supersymmetry)
  Eirik Hjertenaes,         NTNU,                         Norway      (Cholesky decomposition)
  Pi A. B. Haase,           University of Copenhagen,     Denmark     (Triplet AO-SOPPA)
  Maria Francesca Iozzi,    University of Oslo,           Norway      (RPA)
  Christoph Jacob           TU Braunschweig               Germany     (Frozen density embedding)
  Brano Jansik              Technical Univ. of Ostrava    Czech Rep.  (DFT cubic response)
  Hans Joergen Aa. Jensen,  Univ. of Southern Denmark,    Denmark     (DALTON; SIRIUS, RESPONS, ABACUS, MC-srDFT, and much more)
  Dan Jonsson,              UiT The Arctic U. of Norway,  Norway      (Cubic response in RESPONS module)
  Poul Joergensen,          Aarhus University,            Denmark     (RESPONS, ABACUS, and CC modules)
  Maciej Kaminski,          University of Warsaw,         Poland      (CPPh in RESPONS)
  Joanna Kauczor,           Linkoeping University,        Sweden      (Complex polarization propagator (CPP) module)
  Sheela Kirpekar,          Univ. of Southern Denmark,    Denmark     (Mass-velocity & Darwin integrals)
  Erik Kjellgren,           Univ. of Southern Denmark,    Denmark     (MC-srDFT)
  Wim Klopper,              KIT Karlsruhe,                Germany     (R12 code in CC, SIRIUS, and ABACUS modules)
  Stefan Knecht,            ETH Zurich,                   Switzerland (Parallel CI and MCSCF, MC-srDFT)
  Rika Kobayashi,           Australian National Univ.,    Australia   (DIIS in CC, London in MCSCF)
  Henrik Koch,              NTNU,                         Norway      (CC module, Cholesky decomposition)
  Jacob Kongsted,           Univ. of Southern Denmark,    Denmark     (Polarizable embedding, polarizable density embedding, QM/MM)
  Andrea Ligabue,           University of Modena,         Italy       (CTOCD, AOSOPPA)
  Nanna H. List             Univ. of Southern Denmark,    Denmark     (Polarizable embedding)
  Ola B. Lutnaes,           University of Oslo,           Norway      (DFT Hessian)
  Juan I. Melo,             University of Buenos Aires,   Argentina   (LRESC, Relativistic Effects on NMR Shieldings)
  Kurt V. Mikkelsen,        University of Copenhagen,     Denmark     (MC-SCRF and QM/MM)
  Rolf H. Myhre,            NTNU,                         Norway      (Subsystems and CC3)
  Christian Neiss,          Univ. Erlangen-Nuernberg,     Germany     (CCSD(R12))
  Christian B. Nielsen,     University of Copenhagen,     Denmark     (QM/MM)
  Patrick Norman,           KTH Stockholm,                Sweden      (Cubic response and complex frequency response in RESPONS)
  Jeppe Olsen,              Aarhus University,            Denmark     (SIRIUS CI/density modules)
  Jogvan Magnus H. Olsen,   Aarhus University,            Denmark     (Polarizable embedding and polarizable density embedding)
  Anders Osted,             Copenhagen University,        Denmark     (QM/MM)
  Martin J. Packer,         University of Sheffield,      UK          (SOPPA)
  Filip Pawlowski,          Kazimierz Wielki University,  Poland      (CC3)
  Morten N. Pedersen,       Univ. of Southern Denmark,    Denmark     (Polarizable embedding)
  Thomas B. Pedersen,       University of Oslo,           Norway      (Cholesky decomposition)
  Patricio F. Provasi,      University of Northeastern,   Argentina   (Analysis of coupling constants in localized orbitals)
  Peter Reinholdt,          Univ. of Southern Denmark,    Denmark     (Polarizable embedding and polarizable density embedding)
  Zilvinas Rinkevicius,     KTH Stockholm,                Sweden      (open-shell DFT, ESR)
  Elias Rudberg,            KTH Stockholm,                Sweden      (DFT grid and basis info)
  Torgeir A. Ruden,         University of Oslo,           Norway      (Numerical derivatives in ABACUS)
  Kenneth Ruud,             UiT The Arctic U. of Norway,  Norway      (DALTON; ABACUS magnetic properties and much more)
  Pawel Salek,              KTH Stockholm,                Sweden      (DALTON; DFT code)
  Claire C. M. Samson       University of Karlsruhe       Germany     (Boys localization, r12 integrals in ERI)
  Alfredo Sanchez de Meras, University of Valencia,       Spain       (CC module, Cholesky decomposition)
  Trond Saue,               Paul Sabatier University,     France      (direct Fock matrix construction)
  Stephan P. A. Sauer,      University of Copenhagen,     Denmark     (SOPPA(CCSD), SOPPA prop., AOSOPPA, vibrational g-factors)
  Bernd Schimmelpfennig,    Forschungszentrum Karlsruhe,  Germany     (AMFI module)
  Anna K. Schnack-Petersen, University of Copenhagen,     Denmark     (RPA(D) and HRPA(D) properties in AOSOPPA)
  Kristian Sneskov,         Aarhus University,            Denmark     (Polarizable embedding, QM/MM)
  Arnfinn H. Steindal,      UiT The Arctic U. of Norway,  Norway      (parallel QM/MM, polarizable embedding)
  Casper Steinmann,         Aalborg University,           Denmark     (QFIT, polarizable embedding)
  K. O. Sylvester-Hvid,     University of Copenhagen,     Denmark     (MC-SCRF)
  Peter R. Taylor,          VLSCI/Univ. of Melbourne,     Australia   (Symmetry handling ABACUS, integral transformation)
  Andrew M. Teale,          University of Nottingham,     England     (DFT-AC, DFT-D)
  David P. Tew,             University of Bristol,        England     (CCSD(R12))
  Julien Toulouse,          Sorbonne Univ.,               France      (MC-srDFT)
  Olav Vahtras,             KTH Stockholm,                Sweden      (Triplet response, spin-orbit, ESR, TDDFT, open-shell DFT)
  Lucas Visscher,           Vrije Universiteit Amsterdam, Netherlands (Frozen density embedding)
  David J. Wilson,          La Trobe University,          Australia   (DFT Hessian and DFT magnetizabilities)
  Hans Agren,               KTH Stockholm,                Sweden      (SIRIUS module, RESPONS, MC-SCRF solvation)
 --------------------------------------------------------------------------------

     Date and time (Linux)  : Wed Jan 11 14:16:37 2023
     Host name              : cn040                                   

 * Work memory size             :    64000000 =  488.28 megabytes.

 * Directories for basis set searches:
   1) /gpfs/projects/rjh/adrian/fd_compare/dalton/hf/F2/dipole
   2) /gpfs/projects/rjh/adrian/dalton/build/basis


Compilation information
-----------------------

 Who compiled             | ahurtado
 Host                     | sn-mem
 System                   | Linux-3.10.0-1160.24.1.el7.x86_64
 CMake generator          | Unix Makefiles
 Processor                | x86_64
 64-bit integers          | OFF
 MPI                      | ON
 Fortran compiler         | /gpfs/software/intel/oneAPI/2021_4/mpi/2021.4.0/bi
                          | n/mpif90
 Fortran compiler version | GNU Fortran (GCC) 11.2.0
 C compiler               | /gpfs/software/intel/oneAPI/2021_4/mpi/2021.4.0/bi
                          | n/mpicc
 C compiler version       | gcc (GCC) 11.2.0
 C++ compiler             | /gpfs/software/intel/oneAPI/2021_4/mpi/2021.4.0/bi
                          | n/mpicxx
 C++ compiler version     | unknown
 BLAS                     | /gpfs/software/intel/oneAPI/2021_4/mkl/2021.4.0/li
                          | b/intel64/libmkl_gf_lp64.so;/gpfs/software/intel/o
                          | neAPI/2021_4/mkl/2021.4.0/lib/intel64/libmkl_seque
                          | ntial.so;/gpfs/software/intel/oneAPI/2021_4/mkl/20
                          | 21.4.0/lib/intel64/libmkl_core.so;/usr/lib64/libpt
                          | hread.so;/usr/lib64/libm.so
 LAPACK                   | /gpfs/software/intel/oneAPI/2021_4/mkl/2021.4.0/li
                          | b/intel64/libmkl_lapack95_lp64.a;/gpfs/software/in
                          | tel/oneAPI/2021_4/mkl/2021.4.0/lib/intel64/libmkl_
                          | gf_lp64.so
 Static linking           | OFF
 Last Git revision        | 66052b3af5ea7225e31178bf9a8b031913c72190
 Git branch               | (HEAD detached at Dalton2020.0)
 Configuration time       | 2023-01-11 13:33:37.731835

 * MPI parallel run using 20 processes.


   Content of the .dal input file
 ----------------------------------

**DALTON INPUT
.RUN RESPONSE
.DIRECT
**WAVE FUNCTIONS
.HF
**RESPONSE
*LINEAR
.DIPLEN
.FREQUENCIES
9
0.0 0.0110174375 0.022034875 0.0330523125 0.04406975 0.055087187499999996 0.066104625 0.077122062499
**END OF DALTON INPUT


   Content of the .mol file
 ----------------------------

BASIS
d-aug-cc-pVTZ
blah
blah
Atomtype=1 Atomic
Charge=9 Atoms=2
F_a 0.000000000000 0.000000000000 0.000000000000
F_b 0.000000000000 0.000000000000 2.668160000000


       *******************************************************************
       *********** Output from DALTON general input processing ***********
       *******************************************************************

 --------------------------------------------------------------------------------
   Overall default print level:    0
   Print level for DALTON.STAT:    1

    Parallel calculation using MPI
    AO-direct calculation (in sections where implemented)
    HERMIT 1- and 2-electron integral sections will be executed
    "Old" integral transformation used (limited to max 255 basis functions)
    Wave function sections will be executed (SIRIUS module)
    Dynamic molecular response properties section will be executed (RESPONSE module)
 --------------------------------------------------------------------------------


   ****************************************************************************
   *************** Output of molecule and basis set information ***************
   ****************************************************************************


    The two title cards from your ".mol" input:
    ------------------------------------------------------------------------
 1: blah                                                                    
 2: blah                                                                    
    ------------------------------------------------------------------------

  Atomic type no.    1
  --------------------
  Nuclear charge:   9.00000
  Number of symmetry independent centers:    2
  Number of basis sets to read;    2
  Basis set file used for this atomic type with Z =   9 :
     "/gpfs/projects/rjh/adrian/dalton/build/basis/aug-cc-pVTZ"


                      SYMADD: Requested addition of symmetry
                      --------------------------------------

 Symmetry test threshold:  5.00E-06

@   The molecule is centered at center of mass and rotated
@   so principal axes of inertia are along coordinate axes.

 Symmetry class found: D(oo,h)        

 Symmetry Independent Centres             
 ----------------------------
F_b    9 :      0.00000000     0.00000000     1.33408000  Isotope  1

 The following symmetry elements were found:   X  Y  Z  


                         SYMGRP: Point group information
                         -------------------------------

@    Full point group is: D(oo,h)        
@    Represented as:      D2h

@  * The irrep name for each symmetry:    1: Ag     2: B3u    3: B2u    4: B1g    5: B1u    6: B2g    7: B3g    8: Au 


   * The point group was generated by:

      Reflection in the yz-plane
      Reflection in the xz-plane
      Reflection in the xy-plane

   * Group multiplication table

        |  E   C2z  C2y  C2x   i   Oxy  Oxz  Oyz
   -----+----------------------------------------
     E  |  E   C2z  C2y  C2x   i   Oxy  Oxz  Oyz
    C2z | C2z   E   C2x  C2y  Oxy   i   Oyz  Oxz
    C2y | C2y  C2x   E   C2z  Oxz  Oyz   i   Oxy
    C2x | C2x  C2y  C2z   E   Oyz  Oxz  Oxy   i 
     i  |  i   Oxy  Oxz  Oyz   E   C2z  C2y  C2x
    Oxy | Oxy   i   Oyz  Oxz  C2z   E   C2x  C2y
    Oxz | Oxz  Oyz   i   Oxy  C2y  C2x   E   C2z
    Oyz | Oyz  Oxz  Oxy   i   C2x  C2y  C2z   E 

   * Character table

        |  E   C2z  C2y  C2x   i   Oxy  Oxz  Oyz
   -----+----------------------------------------
    Ag  |   1    1    1    1    1    1    1    1
    B3u |   1   -1   -1    1   -1    1    1   -1
    B2u |   1   -1    1   -1   -1    1   -1    1
    B1g |   1    1   -1   -1    1    1   -1   -1
    B1u |   1    1   -1   -1   -1   -1    1    1
    B2g |   1   -1    1   -1    1   -1    1   -1
    B3g |   1   -1   -1    1    1   -1   -1    1
    Au  |   1    1    1    1   -1   -1   -1   -1

   * Direct product table

        | Ag   B3u  B2u  B1g  B1u  B2g  B3g  Au 
   -----+----------------------------------------
    Ag  | Ag   B3u  B2u  B1g  B1u  B2g  B3g  Au 
    B3u | B3u  Ag   B1g  B2u  B2g  B1u  Au   B3g
    B2u | B2u  B1g  Ag   B3u  B3g  Au   B1u  B2g
    B1g | B1g  B2u  B3u  Ag   Au   B3g  B2g  B1u
    B1u | B1u  B2g  B3g  Au   Ag   B3u  B2u  B1g
    B2g | B2g  B1u  Au   B3g  B3u  Ag   B1g  B2u
    B3g | B3g  Au   B1u  B2g  B2u  B1g  Ag   B3u
    Au  | Au   B3g  B2g  B1u  B1g  B2u  B3u  Ag 


                                 Isotopic Masses
                                 ---------------

                           F_b _1     18.998403
                           F_b _2     18.998403

                       Total mass:    37.996806 amu
                       Natural abundance: 100.000 %

 Center-of-mass coordinates (a.u.):    0.000000    0.000000    0.000000
 Center-of-mass coordinates (Angs):    0.000000    0.000000    0.000000


  Atoms and basis sets
  --------------------

  Number of atom types :    1
  Total number of atoms:    2

  Basis set used is "d-aug-cc-pVTZ" from the basis set library.

  label    atoms   charge   prim   cont     basis
  ----------------------------------------------------------------------
  F_          2    9.0000    74    62      [12s7p4d3f|6s5p4d3f]                               
  ----------------------------------------------------------------------
  total:      2   18.0000   148   124
  ----------------------------------------------------------------------
  Spherical harmonic basis used.

  Threshold for neglecting AO integrals:  1.00D-12


  Cartesian Coordinates (a.u.)
  ----------------------------

  Total number of coordinates:    6
  F_b / 1 :     1  x   0.0000000000    2  y   0.0000000000    3  z   1.3340800000
  F_b / 2 :     4  x   0.0000000000    5  y   0.0000000000    6  z  -1.3340800000


  Symmetry Coordinates
  --------------------

  Number of coordinates in each symmetry:     1    1    1    0    1    1    1    0

  Symmetry  Ag  ( 1)

    1   F_b   z    [  3  -    6 ]/2

  Symmetry  B3u ( 2)

    2   F_b   x    [  1  +    4 ]/2

  Symmetry  B2u ( 3)

    3   F_b   y    [  2  +    5 ]/2

  Symmetry  B1u ( 5)

    4   F_b   z    [  3  +    6 ]/2

  Symmetry  B2g ( 6)

    5   F_b   x    [  1  -    4 ]/2

  Symmetry  B3g ( 7)

    6   F_b   y    [  2  -    5 ]/2


   Interatomic separations (in Angstrom):
   --------------------------------------

            F_b _1      F_b _2
            ------      ------
 F_b _1:    0.000000
 F_b _2:    1.411929    0.000000


  Max    interatomic separation is    1.4119 Angstrom (    2.6682 Bohr)
  between atoms    2 and    1, "F_b _2" and "F_b _1".

  Min YX interatomic separation is    1.4119 Angstrom (    2.6682 Bohr)


  Bond distances (Angstrom):
  --------------------------

                  atom 1     atom 2       distance
                  ------     ------       --------
  bond distance:  F_b _2     F_b _1       1.411929




 Principal moments of inertia (u*A**2) and principal axes
 --------------------------------------------------------

   IA       0.000000          0.000000    0.000000    1.000000
   IB      18.937084          0.000000    1.000000    0.000000
   IC      18.937084          1.000000    0.000000    0.000000


 Rotational constants
 --------------------

@    The molecule is linear.

               B =        26687.27 MHz     (    0.890191 cm-1)


@  Nuclear repulsion energy :   30.357999520269 Hartree


  Symmetry Orbitals
  -----------------

  Number of orbitals in each symmetry:          25   15   15    7   25   15   15    7


  Symmetry  Ag ( 1)

    1     F_b      1s         1 +    2
    2     F_b      1s         3 +    4
    3     F_b      1s         5 +    6
    4     F_b      1s         7 +    8
    5     F_b      1s         9 +   10
    6     F_b      1s        11 +   12
    7     F_b      2pz       17 -   18
    8     F_b      2pz       23 -   24
    9     F_b      2pz       29 -   30
   10     F_b      2pz       35 -   36
   11     F_b      2pz       41 -   42
   12     F_b      3d0       47 +   48
   13     F_b      3d2+      51 +   52
   14     F_b      3d0       57 +   58
   15     F_b      3d2+      61 +   62
   16     F_b      3d0       67 +   68
   17     F_b      3d2+      71 +   72
   18     F_b      3d0       77 +   78
   19     F_b      3d2+      81 +   82
   20     F_b      4f0       89 -   90
   21     F_b      4f2+      93 -   94
   22     F_b      4f0      103 -  104
   23     F_b      4f2+     107 -  108
   24     F_b      4f0      117 -  118
   25     F_b      4f2+     121 -  122


  Symmetry  B3u( 2)

   26     F_b      2px       13 +   14
   27     F_b      2px       19 +   20
   28     F_b      2px       25 +   26
   29     F_b      2px       31 +   32
   30     F_b      2px       37 +   38
   31     F_b      3d1+      49 -   50
   32     F_b      3d1+      59 -   60
   33     F_b      3d1+      69 -   70
   34     F_b      3d1+      79 -   80
   35     F_b      4f1+      91 +   92
   36     F_b      4f3+      95 +   96
   37     F_b      4f1+     105 +  106
   38     F_b      4f3+     109 +  110
   39     F_b      4f1+     119 +  120
   40     F_b      4f3+     123 +  124


  Symmetry  B2u( 3)

   41     F_b      2py       15 +   16
   42     F_b      2py       21 +   22
   43     F_b      2py       27 +   28
   44     F_b      2py       33 +   34
   45     F_b      2py       39 +   40
   46     F_b      3d1-      45 -   46
   47     F_b      3d1-      55 -   56
   48     F_b      3d1-      65 -   66
   49     F_b      3d1-      75 -   76
   50     F_b      4f3-      83 +   84
   51     F_b      4f1-      87 +   88
   52     F_b      4f3-      97 +   98
   53     F_b      4f1-     101 +  102
   54     F_b      4f3-     111 +  112
   55     F_b      4f1-     115 +  116


  Symmetry  B1g( 4)

   56     F_b      3d2-      43 +   44
   57     F_b      3d2-      53 +   54
   58     F_b      3d2-      63 +   64
   59     F_b      3d2-      73 +   74
   60     F_b      4f2-      85 -   86
   61     F_b      4f2-      99 -  100
   62     F_b      4f2-     113 -  114


  Symmetry  B1u( 5)

   63     F_b      1s         1 -    2
   64     F_b      1s         3 -    4
   65     F_b      1s         5 -    6
   66     F_b      1s         7 -    8
   67     F_b      1s         9 -   10
   68     F_b      1s        11 -   12
   69     F_b      2pz       17 +   18
   70     F_b      2pz       23 +   24
   71     F_b      2pz       29 +   30
   72     F_b      2pz       35 +   36
   73     F_b      2pz       41 +   42
   74     F_b      3d0       47 -   48
   75     F_b      3d2+      51 -   52
   76     F_b      3d0       57 -   58
   77     F_b      3d2+      61 -   62
   78     F_b      3d0       67 -   68
   79     F_b      3d2+      71 -   72
   80     F_b      3d0       77 -   78
   81     F_b      3d2+      81 -   82
   82     F_b      4f0       89 +   90
   83     F_b      4f2+      93 +   94
   84     F_b      4f0      103 +  104
   85     F_b      4f2+     107 +  108
   86     F_b      4f0      117 +  118
   87     F_b      4f2+     121 +  122


  Symmetry  B2g( 6)

   88     F_b      2px       13 -   14
   89     F_b      2px       19 -   20
   90     F_b      2px       25 -   26
   91     F_b      2px       31 -   32
   92     F_b      2px       37 -   38
   93     F_b      3d1+      49 +   50
   94     F_b      3d1+      59 +   60
   95     F_b      3d1+      69 +   70
   96     F_b      3d1+      79 +   80
   97     F_b      4f1+      91 -   92
   98     F_b      4f3+      95 -   96
   99     F_b      4f1+     105 -  106
  100     F_b      4f3+     109 -  110
  101     F_b      4f1+     119 -  120
  102     F_b      4f3+     123 -  124


  Symmetry  B3g( 7)

  103     F_b      2py       15 -   16
  104     F_b      2py       21 -   22
  105     F_b      2py       27 -   28
  106     F_b      2py       33 -   34
  107     F_b      2py       39 -   40
  108     F_b      3d1-      45 +   46
  109     F_b      3d1-      55 +   56
  110     F_b      3d1-      65 +   66
  111     F_b      3d1-      75 +   76
  112     F_b      4f3-      83 -   84
  113     F_b      4f1-      87 -   88
  114     F_b      4f3-      97 -   98
  115     F_b      4f1-     101 -  102
  116     F_b      4f3-     111 -  112
  117     F_b      4f1-     115 -  116


  Symmetry  Au ( 8)

  118     F_b      3d2-      43 -   44
  119     F_b      3d2-      53 -   54
  120     F_b      3d2-      63 -   64
  121     F_b      3d2-      73 -   74
  122     F_b      4f2-      85 +   86
  123     F_b      4f2-      99 +  100
  124     F_b      4f2-     113 +  114

  Symmetries of electric field:  B3u(2)  B2u(3)  B1u(5)

  Symmetries of magnetic field:  B3g(7)  B2g(6)  B1g(4)


                     .---------------------------------------.
                     | Starting in Integral Section (HERMIT) |
                     `---------------------------------------'



 ***************************************************************************************
 ****************** Output from **INTEGRALS input processing (HERMIT) ******************
 ***************************************************************************************


 - Using defaults, no **INTEGRALS input found

 Default print level:        1

 Calculation of one-electron Hamiltonian integrals.

 Center of mass  (bohr):      0.000000000000      0.000000000000      0.000000000000
 Operator center (bohr):      0.000000000000      0.000000000000      0.000000000000
 Gauge origin    (bohr):      0.000000000000      0.000000000000      0.000000000000
 Dipole origin   (bohr):      0.000000000000      0.000000000000      0.000000000000


     ************************************************************************
     ************************** Output from HERINT **************************
     ************************************************************************



                      Nuclear contribution to dipole moments
                      --------------------------------------

                    All dipole components are zero by symmetry


  Total CPU  time used in HERMIT:   0.10 seconds
  Total wall time used in HERMIT:   0.11 seconds


                        .----------------------------------.
                        | End of Integral Section (HERMIT) |
                        `----------------------------------'



                   .--------------------------------------------.
                   | Starting in Wave Function Section (SIRIUS) |
                   `--------------------------------------------'


 *** Output from Huckel module :

     Using EWMO model:          F
     Using EHT  model:          T
     Number of Huckel orbitals each symmetry:    3    1    1    0    3    1    1    0

 Huckel EHT eigenvalues for symmetry :  1
          -26.385657      -1.787625      -0.792360

 Huckel EHT eigenvalues for symmetry :  2
           -0.800215

 Huckel EHT eigenvalues for symmetry :  3
           -0.800215

 Huckel EHT eigenvalues for symmetry :  5
          -26.385463      -1.454670      -0.564625

 Huckel EHT eigenvalues for symmetry :  6
           -0.659785

 Huckel EHT eigenvalues for symmetry :  7
           -0.659785

 **********************************************************************
 *SIRIUS* a direct, restricted step, second order MCSCF program       *
 **********************************************************************

 
     Date and time (Linux)  : Wed Jan 11 14:16:37 2023
     Host name              : cn040                                   

 Title lines from ".mol" input file:
     blah                                                                    
     blah                                                                    

 Print level on unit LUPRI =   2 is   0
 Print level on unit LUW4  =   2 is   5

@    Restricted, closed shell Hartree-Fock calculation.

@    Time-dependent Hartree-Fock calculation (random phase approximation).
 Fock matrices are calculated directly and in parallel without use of integrals on disk.

 Initial molecular orbitals are obtained according to
 ".MOSTART EHT   " input option

     Wave function specification
     ============================
@    Wave function type        --- HF ---
@    Number of closed shell electrons          18
@    Number of electrons in active shells       0
@    Total charge of the molecule               0

@    Spin multiplicity and 2 M_S                1         0
@    Total number of symmetries                 8 (point group: D2h)
@    Reference state symmetry                   1 (irrep name : Ag )

     Orbital specifications
     ======================
@    Abelian symmetry species          All |    1    2    3    4    5    6    7    8
@                                          |  Ag   B3u  B2u  B1g  B1u  B2g  B3g  Au 
                                       --- |  ---  ---  ---  ---  ---  ---  ---  ---
@    Total number of orbitals          124 |   25   15   15    7   25   15   15    7
@    Number of basis functions         124 |   25   15   15    7   25   15   15    7

      ** Automatic occupation of RHF orbitals **

      -- Initial occupation of symmetries is determined from extended Huckel guess.           
      -- Initial occupation of symmetries is :
@    Occupied SCF orbitals               9 |    3    1    1    0    2    1    1    0

     Maximum number of Fock   iterations      0
     Maximum number of DIIS   iterations     60
     Maximum number of QC-SCF iterations     60
     Threshold for SCF convergence     1.00D-05


 ***********************************************
 ***** DIIS acceleration of SCF iterations *****
 ***********************************************

 C1-DIIS algorithm; max error vectors =    8

 Automatic occupation of symmetries with  18 electrons.

 Iter     Total energy    Error norm  Delta(E)    SCF occupation
 -----------------------------------------------------------------------------
   1  Screening settings (-IFTHRS, JTDIIS, DIFDEN, times)   -7    1    T  2.94D-01  2.94D-01
@  1  -198.637886121       1.83D+00  -1.99D+02     3   1   1   0   2   1   1   0
      Virial theorem: -V/T =      2.001292
@    MULPOP   F_b _1 -0.00; F_b _2 -0.00; 
   1  Level shift: doubly occupied orbital energies shifted by -2.00D-01
 -----------------------------------------------------------------------------
   2  Screening settings (-IFTHRS, JTDIIS, DIFDEN, times)   -7    2    T  2.73D-01  2.73D-01
@  2  -198.748426406       4.15D-01  -1.11D-01     3   1   1   0   2   1   1   0
      Virial theorem: -V/T =      2.000227
@    MULPOP   F_b _1  0.00; F_b _2  0.00; 
   2  Level shift: doubly occupied orbital energies shifted by -5.00D-02
 -----------------------------------------------------------------------------
   3  Screening settings (-IFTHRS, JTDIIS, DIFDEN, times)   -7    3    T  2.53D-01  2.52D-01
@  3  -198.754673397       9.06D-02  -6.25D-03     3   1   1   0   2   1   1   0
      Virial theorem: -V/T =      2.001933
@    MULPOP   F_b _1  0.00; F_b _2  0.00; 
   3  Level shift: doubly occupied orbital energies shifted by -1.25D-02
 -----------------------------------------------------------------------------
   4  Screening settings (-IFTHRS, JTDIIS, DIFDEN, times)  -11    4    F  2.34D-01  2.35D-01
@  4  -198.755365649       3.03D-02  -6.92D-04     3   1   1   0   2   1   1   0
      Virial theorem: -V/T =      2.001218
@    MULPOP   F_b _1 -0.00; F_b _2 -0.00; 
 -----------------------------------------------------------------------------
   5  Screening settings (-IFTHRS, JTDIIS, DIFDEN, times)  -11    5    T  2.35D-01  2.35D-01
@  5  -198.755418018       6.17D-03  -5.24D-05     3   1   1   0   2   1   1   0
      Virial theorem: -V/T =      2.001474
@    MULPOP   F_b _1 -0.00; F_b _2 -0.00; 
 -----------------------------------------------------------------------------
   6  Screening settings (-IFTHRS, JTDIIS, DIFDEN, times)  -11    6    T  2.33D-01  2.32D-01
@  6  -198.755420134       6.30D-04  -2.12D-06     3   1   1   0   2   1   1   0
      Virial theorem: -V/T =      2.001421
@    MULPOP   F_b _1 -0.00; F_b _2 -0.00; 
 -----------------------------------------------------------------------------
   7  Screening settings (-IFTHRS, JTDIIS, DIFDEN, times)  -11    7    T  2.33D-01  2.33D-01
@  7  -198.755420165       6.32D-05  -3.13D-08     3   1   1   0   2   1   1   0
      Virial theorem: -V/T =      2.001424
@    MULPOP   F_b _1 -0.00; F_b _2 -0.00; 
 -----------------------------------------------------------------------------
   8  Screening settings (-IFTHRS, JTDIIS, DIFDEN, times)  -11    8    T  2.35D-01  2.35D-01
@  8  -198.755420166       6.72D-06  -3.44D-10     3   1   1   0   2   1   1   0

@ *** DIIS converged in   8 iterations !
@     Converged SCF energy, gradient:   -198.755420165678    6.72D-06
    - total time used in SIRFCK :              0.00 seconds


 *** SCF orbital energy analysis ***

 Only the 20 lowest virtual orbital energies printed in each symmetry.

 Number of electrons :   18
 Orbital occupations :    3    1    1    0    2    1    1    0

 Sym       Hartree-Fock orbital energies

1 Ag    -26.43265541    -1.76667653    -0.75260818     0.03770495     0.07415034
          0.22086117     0.28934308     0.30139981     0.57424108     0.94123014
          0.98604287     1.23234133     1.24902085     1.83479242     2.31747764
          2.75911922     2.87947740     3.28574039     3.89405881     5.88488464
          8.75729883     9.11641730     9.31137077

2 B3u    -0.81156318     0.04824908     0.24165501     0.40546353     1.04198329
          1.06156148     1.10875856     1.56654940     2.81026827     3.35201369
          3.66056092     5.20207824     9.09712524     9.17300323     9.48302182

3 B2u    -0.81156318     0.04824908     0.24165501     0.40546353     1.04198329
          1.06156148     1.10875856     1.56654940     2.81026827     3.35201369
          3.66056092     5.20207824     9.09712524     9.17300323     9.48302182

4 B1g     0.30139981     0.98604287     1.24902085     2.87947740     3.28574039
          9.11641730     9.31137077

5 B1u   -26.43241772    -1.49942102     0.02992305     0.07001450     0.12891757
          0.27778273     0.39798200     0.39857988     0.62059223     1.13630800
          1.14967460     1.45176662     1.60193913     1.63031213     3.06315406
          3.20386346     3.65830686     3.95032877     4.24972665     6.81080725
          9.21426799     9.41543009

6 B2g    -0.66712198     0.06600248     0.25658434     0.52130281     1.06890378
          1.29145562     1.35223919     2.23918885     3.25021013     3.57298094
          4.26987666     5.80847064     9.20650212     9.21880737     9.80718156

7 B3g    -0.66712198     0.06600248     0.25658434     0.52130281     1.06890378
          1.29145562     1.35223919     2.23918885     3.25021013     3.57298094
          4.26987666     5.80847064     9.20650212     9.21880737     9.80718156

8 Au      0.39857988     1.14967460     1.63031213     3.06315406     3.95032877
          9.21426799     9.48320763

    E(LUMO) :     0.02992305 au (symmetry 5)
  - E(HOMO) :    -0.66712198 au (symmetry 7)
  ------------------------------------------
    gap     :     0.69704503 au

 --- Writing SIRIFC interface file

 CPU and wall time for SCF :       2.003       2.006


                       .-----------------------------------.
                       | --- Final results from SIRIUS --- |
                       `-----------------------------------'


@    Spin multiplicity:           1
@    Spatial symmetry:            1 ( irrep  Ag  in D2h )
@    Total charge of molecule:    0

@    Final HF energy:            -198.755420165678                 
@    Nuclear repulsion:            30.357999520269
@    Electronic energy:          -229.113419685946

@    Final gradient norm:           0.000006724592

 
     Date and time (Linux)  : Wed Jan 11 14:16:39 2023
     Host name              : cn040                                   

File label for MO orbitals:  11Jan23   FOCKDIIS

 (Only coefficients > 0.0100 are printed.)

 Molecular orbitals for symmetry species 1  (Ag )
 ------------------------------------------------

    Orbital         1        2        3        4        5        6        7
   1 F_b :1s     0.7064  -0.0016   0.0033  -0.0000   0.0012   0.0152   0.0050
   2 F_b :1s    -0.0020   0.6654   0.1661  -0.0489   0.0437   0.1709   0.0897
   4 F_b :1s     0.0014  -0.0248   0.0731  -0.1491   0.0100  -0.5030   0.2983
   5 F_b :1s    -0.0001   0.0034   0.0148  -0.5669   0.4789  -2.0722  -0.6997
   6 F_b :1s    -0.0001  -0.0012  -0.0040   0.9974  -0.1463   1.1308   0.1680
   7 F_b :2pz   -0.0022  -0.0853   0.6294  -0.0326   0.0062   0.0770  -0.0646
   8 F_b :2pz    0.0020  -0.0080   0.0113   0.0052   0.0042   0.0250  -0.0289
   9 F_b :2pz   -0.0000   0.0097   0.0018   0.0146   0.0047   0.1173  -0.0841
  10 F_b :2pz    0.0005   0.0091   0.0379  -0.6149   0.1908  -2.9354   0.5082
  11 F_b :2pz    0.0000  -0.0010  -0.0020   1.0045   1.9794   0.1949  -1.0254
  14 F_b :3d0   -0.0002   0.0107  -0.0214  -0.0022  -0.0056  -0.0079   0.0515
  16 F_b :3d0    0.0008   0.0047  -0.0255   0.0173   0.0368   0.0809  -0.1806
  18 F_b :3d0   -0.0004  -0.0050  -0.0157   0.2687  -0.1872   1.3041   0.5314
  22 F_b :4f0   -0.0003  -0.0035   0.0043   0.0047  -0.0044   0.0181   0.0071
  24 F_b :4f0   -0.0002  -0.0019   0.0109  -0.0323   0.0020  -0.1484   0.0483

    Orbital         8        9       10       11       12       13
   1 F_b :1s    -0.0000   0.0549  -0.0060   0.0000   0.0284  -0.0000
   2 F_b :1s     0.0000  -0.0357  -0.0855   0.0000   0.1146   0.0000
   3 F_b :1s     0.0000  -0.0270  -0.0090  -0.0000  -0.0059   0.0000
   4 F_b :1s    -0.0000  -2.3025   1.4643   0.0000   0.7317  -0.0000
   5 F_b :1s     0.0000  -0.6663  -0.5027  -0.0000   0.3752  -0.0000
   6 F_b :1s     0.0000   0.7889  -0.0792  -0.0000  -0.3401   0.0000
   7 F_b :2pz   -0.0000  -0.1011   0.2899  -0.0000   0.0940   0.0000
   8 F_b :2pz    0.0000   0.1020  -0.0810   0.0000  -0.0205  -0.0000
   9 F_b :2pz    0.0000   0.0762  -0.4163   0.0000   0.0618  -0.0000
  10 F_b :2pz   -0.0000  -4.2384   1.3313   0.0000   1.4464  -0.0000
  11 F_b :2pz    0.0000   0.0803  -0.5286   0.0000   0.0811  -0.0000
  12 F_b :3d0   -0.0000   0.0015  -0.0270   0.0000   0.0164   0.0000
  13 F_b :3d2+   0.0023   0.0000  -0.0000   0.0307  -0.0000   0.0077
  14 F_b :3d0    0.0000  -0.0356   0.1110   0.0000  -0.0401  -0.0000
  15 F_b :3d2+  -0.0452  -0.0000   0.0000  -0.0649   0.0000  -0.0344
  16 F_b :3d0   -0.0000   0.2470  -1.0304   0.0000   0.4398  -0.0000
  17 F_b :3d2+   0.1362   0.0000  -0.0000   0.7939  -0.0000   0.4189
  18 F_b :3d0    0.0000   2.5757  -0.1847  -0.0000  -1.0524   0.0000
  19 F_b :3d2+  -0.6088  -0.0000  -0.0000  -0.3899   0.0000  -0.1084
  20 F_b :4f0    0.0000   0.0019   0.0031  -0.0000   0.0369  -0.0000
  21 F_b :4f2+  -0.0012   0.0000  -0.0000  -0.0077  -0.0000   0.0366
  22 F_b :4f0    0.0000   0.0009   0.0054  -0.0000  -0.1426   0.0000
  23 F_b :4f2+   0.0069  -0.0000   0.0000   0.0249   0.0000  -0.1627
  24 F_b :4f0    0.0000  -0.2627   0.4553  -0.0000   0.7627   0.0000
  25 F_b :4f2+  -0.0047   0.0000  -0.0000  -0.0837  -0.0000   0.7517

 Molecular orbitals for symmetry species 2  (B3u)
 ------------------------------------------------

    Orbital         1        2        3        4        5        6        7
   1 F_b :2px    0.6806  -0.0377  -0.1830  -0.0889   0.1465  -0.0000  -0.4361
   2 F_b :2px    0.0020  -0.0072   0.0352   0.0281   0.0402   0.0000  -0.2862
   3 F_b :2px   -0.0225   0.0267  -0.2012  -0.2371  -0.3287   0.0000   1.3516
   4 F_b :2px    0.0071  -0.1506   0.8805  -0.0908  -0.0321  -0.0000  -0.5602
   5 F_b :2px    0.0010   0.5857  -0.3790   0.0451   0.0259   0.0000   0.1565
   6 F_b :3d1+  -0.0030   0.0005  -0.0006   0.0027   0.0288   0.0000   0.0108
   7 F_b :3d1+  -0.0118  -0.0010   0.0176  -0.0443  -0.0314   0.0000  -0.0312
   8 F_b :3d1+  -0.0032   0.0082  -0.0474   0.1548   0.7606   0.0000   0.2495
   9 F_b :3d1+   0.0013  -0.0216   0.2037  -1.0907  -0.7284   0.0000   0.0842
  10 F_b :4f1+   0.0029  -0.0003  -0.0007   0.0044   0.0145  -0.0000  -0.0080
  11 F_b :4f3+   0.0000  -0.0000  -0.0000  -0.0000   0.0000  -0.0357  -0.0000
  12 F_b :4f1+   0.0046   0.0001  -0.0023  -0.0204  -0.0674  -0.0000   0.0257
  13 F_b :4f3+  -0.0000   0.0000   0.0000   0.0000  -0.0000   0.1546   0.0000
  14 F_b :4f1+   0.0016  -0.0036   0.0147   0.1162   0.4286   0.0000  -0.2529
  15 F_b :4f3+  -0.0000  -0.0000  -0.0000   0.0000  -0.0000  -0.6741   0.0000

    Orbital         8        9       10       11
   1 F_b :2px   -0.2135  -0.0383  -0.0000   0.2299
   2 F_b :2px   -0.1074   0.1023   0.0000  -0.1462
   3 F_b :2px   -0.4380   0.3076   0.0000  -0.2569
   4 F_b :2px    0.1346  -0.1569  -0.0000   0.0094
   5 F_b :2px   -0.0114   0.0386   0.0000   0.0098
   6 F_b :3d1+  -0.0161   0.0007   0.0000   0.0084
   7 F_b :3d1+  -0.0202  -0.9021   0.0000  -0.4051
   8 F_b :3d1+  -0.1268   0.7785  -0.0000   0.2627
   9 F_b :3d1+  -0.4828  -0.1316   0.0000  -0.3098
  10 F_b :4f1+   0.0389  -0.0085  -0.0000   0.0774
  11 F_b :4f3+  -0.0000   0.0000  -0.1094   0.0000
  12 F_b :4f1+  -0.1695   0.2170  -0.0000  -0.8442
  13 F_b :4f3+   0.0000  -0.0000   0.9285  -0.0000
  14 F_b :4f1+   1.2368  -0.4905   0.0000   0.5742
  15 F_b :4f3+   0.0000  -0.0000  -0.3955  -0.0000

 Molecular orbitals for symmetry species 3  (B2u)
 ------------------------------------------------

    Orbital         1        2        3        4        5        6        7
   1 F_b :2py    0.6806  -0.0377  -0.1830  -0.0889   0.1465   0.0000  -0.4361
   2 F_b :2py    0.0020  -0.0072   0.0352   0.0281   0.0402  -0.0000  -0.2862
   3 F_b :2py   -0.0225   0.0267  -0.2012  -0.2371  -0.3287  -0.0000   1.3516
   4 F_b :2py    0.0071  -0.1506   0.8805  -0.0908  -0.0321   0.0000  -0.5602
   5 F_b :2py    0.0010   0.5857  -0.3790   0.0451   0.0259  -0.0000   0.1565
   6 F_b :3d1-  -0.0030   0.0005  -0.0006   0.0027   0.0288  -0.0000   0.0108
   7 F_b :3d1-  -0.0118  -0.0010   0.0176  -0.0443  -0.0314  -0.0000  -0.0312
   8 F_b :3d1-  -0.0032   0.0082  -0.0474   0.1548   0.7606  -0.0000   0.2495
   9 F_b :3d1-   0.0013  -0.0216   0.2037  -1.0907  -0.7284  -0.0000   0.0842
  10 F_b :4f3-  -0.0000   0.0000   0.0000   0.0000  -0.0000  -0.0357   0.0000
  11 F_b :4f1-   0.0029  -0.0003  -0.0007   0.0044   0.0145   0.0000  -0.0080
  12 F_b :4f3-   0.0000  -0.0000  -0.0000  -0.0000   0.0000   0.1546  -0.0000
  13 F_b :4f1-   0.0046   0.0001  -0.0023  -0.0204  -0.0674   0.0000   0.0257
  14 F_b :4f3-   0.0000   0.0000   0.0000  -0.0000   0.0000  -0.6741  -0.0000
  15 F_b :4f1-   0.0016  -0.0036   0.0147   0.1162   0.4286  -0.0000  -0.2529

    Orbital         8        9       10       11
   1 F_b :2py   -0.2135  -0.0383   0.0000   0.2299
   2 F_b :2py   -0.1074   0.1023  -0.0000  -0.1462
   3 F_b :2py   -0.4380   0.3076  -0.0000  -0.2569
   4 F_b :2py    0.1346  -0.1569   0.0000   0.0094
   5 F_b :2py   -0.0114   0.0386  -0.0000   0.0098
   6 F_b :3d1-  -0.0161   0.0007  -0.0000   0.0084
   7 F_b :3d1-  -0.0202  -0.9021  -0.0000  -0.4051
   8 F_b :3d1-  -0.1268   0.7785   0.0000   0.2627
   9 F_b :3d1-  -0.4828  -0.1316  -0.0000  -0.3098
  10 F_b :4f3-   0.0000  -0.0000  -0.1094  -0.0000
  11 F_b :4f1-   0.0389  -0.0085   0.0000   0.0774
  12 F_b :4f3-  -0.0000   0.0000   0.9285   0.0000
  13 F_b :4f1-  -0.1695   0.2170   0.0000  -0.8442
  14 F_b :4f3-  -0.0000   0.0000  -0.3955   0.0000
  15 F_b :4f1-   1.2368  -0.4905  -0.0000   0.5742

 Molecular orbitals for symmetry species 4  (B1g)
 ------------------------------------------------

    Orbital         1        2        3        4        5        6        7
   1 F_b :3d2-   0.0023   0.0307   0.0077   0.0033   0.0076   0.3379   0.7852
   2 F_b :3d2-  -0.0452  -0.0649  -0.0344   0.8664   0.3633  -0.2208  -0.5859
   3 F_b :3d2-   0.1362   0.7939   0.4189  -0.6060  -0.2915   0.0853   0.2930
   4 F_b :3d2-  -0.6088  -0.3899  -0.1084   0.2010   0.0619  -0.0378  -0.0822
   5 F_b :4f2-  -0.0012  -0.0077   0.0366   0.0331  -0.0894  -0.8407   0.3776
   6 F_b :4f2-   0.0069   0.0249  -0.1627  -0.2980   0.8167   0.5170  -0.2646
   7 F_b :4f2-  -0.0047  -0.0837   0.7517   0.1407  -0.4381  -0.1852   0.1094

 Molecular orbitals for symmetry species 5  (B1u)
 ------------------------------------------------

    Orbital         1        2        3        4        5        6        7
   1 F_b :1s     0.7062   0.0001  -0.0001  -0.0075  -0.0060   0.0254   0.0332
   2 F_b :1s    -0.0028   0.7241   0.0732  -0.2193   0.0756   0.0824   0.1870
   4 F_b :1s     0.0059   0.0365   0.0850  -0.0938   0.2248  -0.4538  -0.4372
   5 F_b :1s     0.0010  -0.0155   1.8220   1.9734   5.9321 -14.6371   0.1805
   6 F_b :1s    -0.0000  -0.0213   7.2029   9.2613  17.5643 -18.3173   3.5839
   7 F_b :2pz   -0.0023   0.0929  -0.1589   0.5174  -0.4040  -0.2999  -0.0113
   8 F_b :2pz    0.0020  -0.0028   0.0024   0.0168   0.0101  -0.0475  -0.0045
   9 F_b :2pz   -0.0028  -0.0343  -0.1580  -0.0222  -0.5406   1.1781   0.9279
  10 F_b :2pz   -0.0002   0.0128  -1.1216  -1.1446  -3.7301   8.1518  -0.5433
  11 F_b :2pz    0.0000   0.0025  -1.7543  -1.7222  -2.6139   2.2308  -0.5758
  14 F_b :3d0   -0.0007  -0.0052  -0.0008   0.0164   0.0001  -0.0241   0.0194
  16 F_b :3d0    0.0015   0.0069   0.0272   0.0415   0.1178  -0.4217  -0.5225
  18 F_b :3d0    0.0001  -0.0027   0.1405   0.2117   0.4168  -0.8887   1.1384
  22 F_b :4f0    0.0003   0.0003  -0.0007  -0.0019  -0.0059   0.0251   0.0415
  24 F_b :4f0   -0.0004  -0.0020  -0.0133  -0.0149  -0.0384   0.0920  -0.0028

    Orbital         8        9       10       11       12
   1 F_b :1s    -0.0000  -0.0499  -0.0728   0.0000   0.0965
   2 F_b :1s    -0.0000  -0.2657  -0.0106  -0.0000   0.0819
   3 F_b :1s     0.0000  -0.0031   0.0086  -0.0000  -0.0113
   4 F_b :1s    -0.0000   0.6401   2.3090   0.0000  -4.6936
   5 F_b :1s    -0.0000  26.8142   5.1068   0.0000 -22.7403
   6 F_b :1s     0.0000  14.9102  -0.1206   0.0000  -8.8798
   7 F_b :2pz    0.0000  -0.3062  -0.1116   0.0000  -0.2567
   8 F_b :2pz   -0.0000   0.0875   0.0176  -0.0000  -0.2684
   9 F_b :2pz   -0.0000  -2.7562  -3.3202  -0.0000   7.3520
  10 F_b :2pz    0.0000 -11.3853  -1.4469  -0.0000   8.4186
  11 F_b :2pz   -0.0000  -1.6659   0.1044  -0.0000   0.9740
  12 F_b :3d0   -0.0000  -0.0065   0.0133  -0.0000   0.0115
  13 F_b :3d2+   0.0027  -0.0000  -0.0000   0.0255   0.0000
  14 F_b :3d0   -0.0000   0.0421   0.0098  -0.0000  -0.0581
  15 F_b :3d2+  -0.0393   0.0000   0.0000  -0.0445  -0.0000
  16 F_b :3d0   -0.0000   0.7797   1.9405   0.0000  -2.2737
  17 F_b :3d2+   0.1346  -0.0000  -0.0000   0.6400  -0.0000
  18 F_b :3d0    0.0000   2.0635  -0.4188   0.0000  -1.8562
  19 F_b :3d2+  -1.4827  -0.0000  -0.0000  -0.9226  -0.0000
  20 F_b :4f0    0.0000   0.0031   0.0228   0.0000   0.0079
  21 F_b :4f2+   0.0054   0.0000   0.0000   0.0228   0.0000
  22 F_b :4f0    0.0000  -0.0445  -0.1579   0.0000  -0.0004
  23 F_b :4f2+  -0.0275  -0.0000  -0.0000  -0.1049  -0.0000
  24 F_b :4f0   -0.0000  -0.1915   0.1929  -0.0000   1.2991
  25 F_b :4f2+   0.1141   0.0000   0.0000   0.6492   0.0000

 Molecular orbitals for symmetry species 6  (B2g)
 ------------------------------------------------

    Orbital         1        2        3        4        5        6        7
   1 F_b :2px    0.7451  -0.0217   0.1071   0.1551   0.3290   0.0000   0.2091
   2 F_b :2px   -0.0043   0.0045   0.0207  -0.0456  -0.0153  -0.0000   0.1831
   3 F_b :2px    0.0462  -0.0699  -0.3031   0.3476   1.9830  -0.0000  -1.3541
   4 F_b :2px    0.0626  -0.8497  -5.0179   7.9929   0.7498  -0.0000  -4.5822
   5 F_b :2px   -0.0073   3.0024   1.7391  -0.8607  -0.4207  -0.0000   0.3456
   6 F_b :3d1+  -0.0004   0.0004   0.0003   0.0020  -0.0175  -0.0000  -0.0228
   7 F_b :3d1+   0.0042  -0.0016  -0.0129  -0.0387   0.1242  -0.0000   0.0418
   8 F_b :3d1+  -0.0318   0.0477   0.2257   0.1938  -2.3207  -0.0000  -0.5676
   9 F_b :3d1+  -0.0183   0.2537   1.4504  -3.9053  -0.0089   0.0000   2.5948
  10 F_b :4f1+   0.0013  -0.0008  -0.0033   0.0046   0.0165   0.0000  -0.0185
  11 F_b :4f3+   0.0000  -0.0000   0.0000   0.0000   0.0000   0.0392   0.0000
  12 F_b :4f1+  -0.0006   0.0036   0.0176  -0.0265  -0.0703   0.0000   0.0933
  13 F_b :4f3+  -0.0000   0.0000  -0.0000  -0.0000  -0.0000  -0.1806  -0.0000
  14 F_b :4f1+   0.0153  -0.0366  -0.1852   0.0697   1.3824  -0.0000  -0.6589
  15 F_b :4f3+  -0.0000  -0.0000  -0.0000  -0.0000  -0.0000   1.0073  -0.0000

    Orbital         8        9       10       11
   1 F_b :2px    0.3659  -0.1922  -0.0000  -0.3194
   2 F_b :2px    0.5269  -0.0411   0.0000   0.4805
   3 F_b :2px   -6.8644   2.7960   0.0000  -2.5954
   4 F_b :2px   -1.7211  -1.4519   0.0000   0.4114
   5 F_b :2px    0.3014   0.0294   0.0000  -0.0863
   6 F_b :3d1+   0.0284   0.0212   0.0000   0.0190
   7 F_b :3d1+  -0.1301   0.9374   0.0000   0.5273
   8 F_b :3d1+   5.1562  -3.1558  -0.0000   2.0956
   9 F_b :3d1+   0.7737   0.9422  -0.0000  -0.1796
  10 F_b :4f1+   0.0026  -0.0570  -0.0000   0.1475
  11 F_b :4f3+   0.0000  -0.0000  -0.1071  -0.0000
  12 F_b :4f1+   0.0114   0.4937  -0.0000  -1.4298
  13 F_b :4f3+  -0.0000   0.0000   0.9869   0.0000
  14 F_b :4f1+  -2.0906   0.6133   0.0000  -0.2923
  15 F_b :4f3+  -0.0000   0.0000  -0.5481   0.0000

 Molecular orbitals for symmetry species 7  (B3g)
 ------------------------------------------------

    Orbital         1        2        3        4        5        6        7
   1 F_b :2py    0.7451  -0.0217   0.1071   0.1551   0.3290  -0.0000   0.2091
   2 F_b :2py   -0.0043   0.0045   0.0207  -0.0456  -0.0153   0.0000   0.1831
   3 F_b :2py    0.0462  -0.0699  -0.3031   0.3476   1.9830   0.0000  -1.3541
   4 F_b :2py    0.0626  -0.8497  -5.0179   7.9929   0.7498   0.0000  -4.5822
   5 F_b :2py   -0.0073   3.0024   1.7391  -0.8607  -0.4207   0.0000   0.3456
   6 F_b :3d1-  -0.0004   0.0004   0.0003   0.0020  -0.0175   0.0000  -0.0228
   7 F_b :3d1-   0.0042  -0.0016  -0.0129  -0.0387   0.1242   0.0000   0.0418
   8 F_b :3d1-  -0.0318   0.0477   0.2257   0.1938  -2.3207   0.0000  -0.5676
   9 F_b :3d1-  -0.0183   0.2537   1.4504  -3.9053  -0.0089  -0.0000   2.5948
  10 F_b :4f3-  -0.0000   0.0000  -0.0000  -0.0000  -0.0000   0.0392  -0.0000
  11 F_b :4f1-   0.0013  -0.0008  -0.0033   0.0046   0.0165  -0.0000  -0.0185
  12 F_b :4f3-   0.0000  -0.0000   0.0000   0.0000   0.0000  -0.1806   0.0000
  13 F_b :4f1-  -0.0006   0.0036   0.0176  -0.0265  -0.0703  -0.0000   0.0933
  14 F_b :4f3-   0.0000   0.0000   0.0000   0.0000   0.0000   1.0073   0.0000
  15 F_b :4f1-   0.0153  -0.0366  -0.1852   0.0697   1.3824   0.0000  -0.6589

    Orbital         8        9       10       11
   1 F_b :2py    0.3659  -0.1922   0.0000  -0.3194
   2 F_b :2py    0.5269  -0.0411  -0.0000   0.4805
   3 F_b :2py   -6.8644   2.7960  -0.0000  -2.5954
   4 F_b :2py   -1.7211  -1.4519  -0.0000   0.4114
   5 F_b :2py    0.3014   0.0294  -0.0000  -0.0863
   6 F_b :3d1-   0.0284   0.0212  -0.0000   0.0190
   7 F_b :3d1-  -0.1301   0.9374  -0.0000   0.5273
   8 F_b :3d1-   5.1562  -3.1558   0.0000   2.0956
   9 F_b :3d1-   0.7737   0.9422   0.0000  -0.1796
  10 F_b :4f3-  -0.0000   0.0000  -0.1071   0.0000
  11 F_b :4f1-   0.0026  -0.0570   0.0000   0.1475
  12 F_b :4f3-   0.0000  -0.0000   0.9869  -0.0000
  13 F_b :4f1-   0.0114   0.4937   0.0000  -1.4298
  14 F_b :4f3-   0.0000  -0.0000  -0.5481  -0.0000
  15 F_b :4f1-  -2.0906   0.6133  -0.0000  -0.2923

 Molecular orbitals for symmetry species 8  (Au )
 ------------------------------------------------

    Orbital         1        2        3        4        5        6        7
   1 F_b :3d2-   0.0027  -0.0255  -0.0255   0.0097  -0.0124  -0.3650  -0.7836
   2 F_b :3d2-  -0.0393   0.0445   0.0757   0.9628  -0.2342   0.2345   0.6506
   3 F_b :3d2-   0.1346  -0.6400  -1.5115  -1.0762   0.4102  -0.0877  -0.5188
   4 F_b :3d2-  -1.4827   0.9226  -0.3586   0.3402   0.2859   0.2067   0.0299
   5 F_b :4f2-   0.0054  -0.0228   0.0352  -0.0261  -0.1108  -0.8527   0.4293
   6 F_b :4f2-  -0.0275   0.1049  -0.1809   0.1687   1.1264   0.6819  -0.4193
   7 F_b :4f2-   0.1141  -0.6492   1.7242   0.2281  -0.8433  -0.3154   0.3506

  Total CPU  time used in SIRIUS :   2.02 seconds
  Total wall time used in SIRIUS :   2.02 seconds

 
     Date and time (Linux)  : Wed Jan 11 14:16:39 2023
     Host name              : cn040                                   


                     .---------------------------------------.
                     | End of Wave Function Section (SIRIUS) |
                     `---------------------------------------'



                 .------------------------------------------------.
                 | Starting in Dynamic Property Section (RESPONS) |
                 `------------------------------------------------'


 ----------------------------------------------------------------------------------------
  RESPONSE  -  an MCSCF, MC-srDFT, DFT, SOPPA and SOPPA-srDFT response property program
 ----------------------------------------------------------------------------------------


 -------- OUTPUT FROM RESPONSE INPUT PROCESSING --------




 Linear Response calculation
 ---------------------------

 Print level                                    : IPRLR  =   2
 Maximum number of iterations                   : MAXITL =  60
 Threshold for relative convergence             : THCLR  = 1.000D-03
 Maximum iterations in optimal orbital algorithm: MAXITO =   5

  9 B-frequencies  0.000000D+00  1.101744D-02  2.203487D-02  3.305231D-02  4.406975D-02
  5.508719D-02  6.610463D-02  7.712206D-02  8.813950D-02

    1 second order properties calculated with symmetry no.    2 and labels:

          XDIPLEN 

    1 second order properties calculated with symmetry no.    3 and labels:

          YDIPLEN 

    1 second order properties calculated with symmetry no.    5 and labels:

          ZDIPLEN 


   SCF energy         :     -198.755420165677663
 -- inactive part     :     -229.113419685946326
 -- nuclear repulsion :       30.357999520268653


                     ***************************************
                     *** RHF response calculation (TDHF) ***
                     ***************************************

 ----------------------------------------------------------------
 ----- Linear response calculation
 ----- Symmetry of excitation/property operator(s)    2  ( B3u)
 ----------------------------------------------------------------

 Number of excitations of this symmetry            0
 Number of response properties of this symmetry    1
 Number of C6/C8 properties of this symmetry       0


 Perturbation symmetry.     KSYMOP:           2
 Perturbation spin symmetry.TRPLET:           F
 Orbital variables.         KZWOPT:         129
 Configuration variables.   KZCONF:           0
 Total number of variables. KZVAR :         129


 RSPLR -- linear response calculation for symmetry 2  ( B3u)
 RSPLR -- operator label : XDIPLEN 
 RSPLR -- operator spin  :   0
 RSPLR -- frequencies    :     0.000000  0.011017  0.022035  0.033052  0.044070
                               0.055087  0.066105  0.077122  0.088139



 ---  SOLVING SETS OF LINEAR EQUATIONS FOR LINEAR RESPONSE PROPERTIES ---

 Operator symmetry = 2  ( B3u); triplet =   F

RSPORT:    2 out of    9 new trial vectors linear dependent

 ** RSPCTL MICROITERATION NUMBER    1

       No.  Residual tot.,    conf., and orb.    Bnorm      Frequency 
      ----------------------------------------------------------------
         1    6.50766D-01  0.00D+00  6.51D-01  1.52D+00    0.00000D+00
         2    6.50831D-01  0.00D+00  6.51D-01  1.52D+00    1.10174D-02
         3    6.51028D-01  0.00D+00  6.51D-01  1.52D+00    2.20349D-02
         4    6.51355D-01  0.00D+00  6.51D-01  1.53D+00    3.30523D-02
         5    6.51815D-01  0.00D+00  6.52D-01  1.53D+00    4.40697D-02
         6    6.52409D-01  0.00D+00  6.52D-01  1.53D+00    5.50872D-02
         7    6.53138D-01  0.00D+00  6.53D-01  1.54D+00    6.61046D-02
         8    6.54005D-01  0.00D+00  6.54D-01  1.54D+00    7.71221D-02
         9    6.55012D-01  0.00D+00  6.55D-01  1.55D+00    8.81395D-02

 ** RSPCTL MICROITERATION NUMBER    2

       No.  Residual tot.,    conf., and orb.    Bnorm      Frequency 
      ----------------------------------------------------------------
         1    6.47390D-02  0.00D+00  6.47D-02  1.57D+00    0.00000D+00
         2    6.48010D-02  0.00D+00  6.48D-02  1.57D+00    1.10174D-02
         3    6.49902D-02  0.00D+00  6.50D-02  1.57D+00    2.20349D-02
         4    6.53162D-02  0.00D+00  6.53D-02  1.57D+00    3.30523D-02
         5    6.57969D-02  0.00D+00  6.58D-02  1.57D+00    4.40697D-02
         6    6.64604D-02  0.00D+00  6.65D-02  1.58D+00    5.50872D-02
         7    6.73499D-02  0.00D+00  6.73D-02  1.58D+00    6.61046D-02
         8    6.85315D-02  0.00D+00  6.85D-02  1.59D+00    7.71221D-02
         9    7.01078D-02  0.00D+00  7.01D-02  1.60D+00    8.81395D-02

 ** RSPCTL MICROITERATION NUMBER    3

       No.  Residual tot.,    conf., and orb.    Bnorm      Frequency 
      ----------------------------------------------------------------
         1    3.54600D-03  0.00D+00  3.55D-03  1.57D+00    0.00000D+00
         2    3.55731D-03  0.00D+00  3.56D-03  1.57D+00    1.10174D-02
         3    3.59185D-03  0.00D+00  3.59D-03  1.57D+00    2.20349D-02
         4    3.65151D-03  0.00D+00  3.65D-03  1.57D+00    3.30523D-02
         5    3.73974D-03  0.00D+00  3.74D-03  1.57D+00    4.40697D-02
         6    3.86204D-03  0.00D+00  3.86D-03  1.58D+00    5.50872D-02
         7    4.02691D-03  0.00D+00  4.03D-03  1.58D+00    6.61046D-02
         8    4.24737D-03  0.00D+00  4.25D-03  1.59D+00    7.71221D-02
         9    4.54379D-03  0.00D+00  4.54D-03  1.60D+00    8.81395D-02

 ** RSPCTL MICROITERATION NUMBER    4

       No.  Residual tot.,    conf., and orb.    Bnorm      Frequency 
      ----------------------------------------------------------------
         1    2.08667D-04  0.00D+00  2.09D-04  1.57D+00    0.00000D+00
         2    2.09942D-04  0.00D+00  2.10D-04  1.57D+00    1.10174D-02
         3    2.13825D-04  0.00D+00  2.14D-04  1.57D+00    2.20349D-02
         4    2.20497D-04  0.00D+00  2.20D-04  1.57D+00    3.30523D-02
         5    2.30292D-04  0.00D+00  2.30D-04  1.57D+00    4.40697D-02
         6    2.43739D-04  0.00D+00  2.44D-04  1.58D+00    5.50872D-02
         7    2.61660D-04  0.00D+00  2.62D-04  1.58D+00    6.61046D-02
         8    2.85310D-04  0.00D+00  2.85D-04  1.59D+00    7.71221D-02
         9    3.16653D-04  0.00D+00  3.17D-04  1.60D+00    8.81395D-02

 *** THE REQUESTED    9 SOLUTION VECTORS CONVERGED

 Convergence of RSP solution vectors, threshold = 1.00D-03
 ---------------------------------------------------------------
 (dimension of paired reduced space:   68)
 RSP solution vector no.    1; norm of residual   1.33D-04
 RSP solution vector no.    2; norm of residual   1.34D-04
 RSP solution vector no.    3; norm of residual   1.36D-04
 RSP solution vector no.    4; norm of residual   1.40D-04
 RSP solution vector no.    5; norm of residual   1.46D-04
 RSP solution vector no.    6; norm of residual   1.54D-04
 RSP solution vector no.    7; norm of residual   1.65D-04
 RSP solution vector no.    8; norm of residual   1.79D-04
 RSP solution vector no.    9; norm of residual   1.98D-04

 *** RSPCTL MICROITERATIONS CONVERGED


           Final output of second order properties from linear response
           ------------------------------------------------------------


@ Spin symmetry of operators: singlet

 Note that minus the linear response function: - << A; B >>(omega) is printed.
 The results are of quadratic accuracy using Sellers formula.

@ FREQUENCY INDEPENDENT SECOND ORDER PROPERTIES

@ -<< XDIPLEN  ; XDIPLEN  >> =  5.570257467289E+00

@ FREQUENCY DEPENDENT SECOND ORDER PROPERTIES WITH FREQUENCY :

@    a.u.:  1.1017437D-02
@    cm-1:  2.4180480D+03
@    eV  :  2.9979972D-01
@  kJ/mol:  2.8926278D+01
@    nm  :  4.1355672D+03

@ -<< XDIPLEN  ; XDIPLEN  >> =  5.570995427232E+00

@ FREQUENCY DEPENDENT SECOND ORDER PROPERTIES WITH FREQUENCY :

@    a.u.:  2.2034875D-02
@    cm-1:  4.8360960D+03
@    eV  :  5.9959945D-01
@  kJ/mol:  5.7852555D+01
@    nm  :  2.0677836D+03

@ -<< XDIPLEN  ; XDIPLEN  >> =  5.573211851320E+00

@ FREQUENCY DEPENDENT SECOND ORDER PROPERTIES WITH FREQUENCY :

@    a.u.:  3.3052313D-02
@    cm-1:  7.2541440D+03
@    eV  :  8.9939917D-01
@  kJ/mol:  8.6778833D+01
@    nm  :  1.3785224D+03

@ -<< XDIPLEN  ; XDIPLEN  >> =  5.576914474951E+00

@ FREQUENCY DEPENDENT SECOND ORDER PROPERTIES WITH FREQUENCY :

@    a.u.:  4.4069750D-02
@    cm-1:  9.6721920D+03
@    eV  :  1.1991989D+00
@  kJ/mol:  1.1570511D+02
@    nm  :  1.0338918D+03

@ -<< XDIPLEN  ; XDIPLEN  >> =  5.582116553291E+00

@ FREQUENCY DEPENDENT SECOND ORDER PROPERTIES WITH FREQUENCY :

@    a.u.:  5.5087187D-02
@    cm-1:  1.2090240D+04
@    eV  :  1.4989986D+00
@  kJ/mol:  1.4463139D+02
@    nm  :  8.2711344D+02

@ -<< XDIPLEN  ; XDIPLEN  >> =  5.588837486342E+00

@ FREQUENCY DEPENDENT SECOND ORDER PROPERTIES WITH FREQUENCY :

@    a.u.:  6.6104625D-02
@    cm-1:  1.4508288D+04
@    eV  :  1.7987983D+00
@  kJ/mol:  1.7355767D+02
@    nm  :  6.8926120D+02

@ -<< XDIPLEN  ; XDIPLEN  >> =  5.597103889208E+00

@ FREQUENCY DEPENDENT SECOND ORDER PROPERTIES WITH FREQUENCY :

@    a.u.:  7.7122062D-02
@    cm-1:  1.6926336D+04
@    eV  :  2.0985981D+00
@  kJ/mol:  2.0248394D+02
@    nm  :  5.9079531D+02

@ -<< XDIPLEN  ; XDIPLEN  >> =  5.606951402938E+00

@ FREQUENCY DEPENDENT SECOND ORDER PROPERTIES WITH FREQUENCY :

@    a.u.:  8.8139500D-02
@    cm-1:  1.9344384D+04
@    eV  :  2.3983978D+00
@  kJ/mol:  2.3141022D+02
@    nm  :  5.1694590D+02

@ -<< XDIPLEN  ; XDIPLEN  >> =  5.618427845563E+00


 Time used in linear response calculation is      2.20 CPU seconds for symmetry 2
 ----------------------------------------------------------------
 ----- Linear response calculation
 ----- Symmetry of excitation/property operator(s)    3  ( B2u)
 ----------------------------------------------------------------

 Number of excitations of this symmetry            0
 Number of response properties of this symmetry    1
 Number of C6/C8 properties of this symmetry       0


 Perturbation symmetry.     KSYMOP:           3
 Perturbation spin symmetry.TRPLET:           F
 Orbital variables.         KZWOPT:         129
 Configuration variables.   KZCONF:           0
 Total number of variables. KZVAR :         129


 RSPLR -- linear response calculation for symmetry 3  ( B2u)
 RSPLR -- operator label : YDIPLEN 
 RSPLR -- operator spin  :   0
 RSPLR -- frequencies    :     0.000000  0.011017  0.022035  0.033052  0.044070
                               0.055087  0.066105  0.077122  0.088139



 ---  SOLVING SETS OF LINEAR EQUATIONS FOR LINEAR RESPONSE PROPERTIES ---

 Operator symmetry = 3  ( B2u); triplet =   F

RSPORT:    2 out of    9 new trial vectors linear dependent

 ** RSPCTL MICROITERATION NUMBER    1

       No.  Residual tot.,    conf., and orb.    Bnorm      Frequency 
      ----------------------------------------------------------------
         1    6.42073D-01  0.00D+00  6.42D-01  1.53D+00    0.00000D+00
         2    6.42142D-01  0.00D+00  6.42D-01  1.53D+00    1.10174D-02
         3    6.42350D-01  0.00D+00  6.42D-01  1.53D+00    2.20349D-02
         4    6.42696D-01  0.00D+00  6.43D-01  1.53D+00    3.30523D-02
         5    6.43183D-01  0.00D+00  6.43D-01  1.53D+00    4.40697D-02
         6    6.43812D-01  0.00D+00  6.44D-01  1.54D+00    5.50872D-02
         7    6.44584D-01  0.00D+00  6.45D-01  1.54D+00    6.61046D-02
         8    6.45502D-01  0.00D+00  6.46D-01  1.55D+00    7.71221D-02
         9    6.46570D-01  0.00D+00  6.47D-01  1.55D+00    8.81395D-02

 ** RSPCTL MICROITERATION NUMBER    2

       No.  Residual tot.,    conf., and orb.    Bnorm      Frequency 
      ----------------------------------------------------------------
         1    6.13905D-02  0.00D+00  6.14D-02  1.57D+00    0.00000D+00
         2    6.14609D-02  0.00D+00  6.15D-02  1.57D+00    1.10174D-02
         3    6.16755D-02  0.00D+00  6.17D-02  1.57D+00    2.20349D-02
         4    6.20453D-02  0.00D+00  6.20D-02  1.57D+00    3.30523D-02
         5    6.25901D-02  0.00D+00  6.26D-02  1.57D+00    4.40697D-02
         6    6.33412D-02  0.00D+00  6.33D-02  1.58D+00    5.50872D-02
         7    6.43462D-02  0.00D+00  6.43D-02  1.58D+00    6.61046D-02
         8    6.56770D-02  0.00D+00  6.57D-02  1.59D+00    7.71221D-02
         9    6.74439D-02  0.00D+00  6.74D-02  1.60D+00    8.81395D-02

 ** RSPCTL MICROITERATION NUMBER    3

       No.  Residual tot.,    conf., and orb.    Bnorm      Frequency 
      ----------------------------------------------------------------
         1    4.28549D-03  0.00D+00  4.29D-03  1.57D+00    0.00000D+00
         2    4.29981D-03  0.00D+00  4.30D-03  1.57D+00    1.10174D-02
         3    4.34342D-03  0.00D+00  4.34D-03  1.57D+00    2.20349D-02
         4    4.41829D-03  0.00D+00  4.42D-03  1.57D+00    3.30523D-02
         5    4.52798D-03  0.00D+00  4.53D-03  1.57D+00    4.40697D-02
         6    4.67816D-03  0.00D+00  4.68D-03  1.58D+00    5.50872D-02
         7    4.87753D-03  0.00D+00  4.88D-03  1.58D+00    6.61046D-02
         8    5.13929D-03  0.00D+00  5.14D-03  1.59D+00    7.71221D-02
         9    5.48400D-03  0.00D+00  5.48D-03  1.60D+00    8.81395D-02

 ** RSPCTL MICROITERATION NUMBER    4

       No.  Residual tot.,    conf., and orb.    Bnorm      Frequency 
      ----------------------------------------------------------------
         1    2.75110D-04  0.00D+00  2.75D-04  1.57D+00    0.00000D+00
         2    2.76710D-04  0.00D+00  2.77D-04  1.57D+00    1.10174D-02
         3    2.81565D-04  0.00D+00  2.82D-04  1.57D+00    2.20349D-02
         4    2.89843D-04  0.00D+00  2.90D-04  1.57D+00    3.30523D-02
         5    3.01859D-04  0.00D+00  3.02D-04  1.57D+00    4.40697D-02
         6    3.18114D-04  0.00D+00  3.18D-04  1.58D+00    5.50872D-02
         7    3.39387D-04  0.00D+00  3.39D-04  1.58D+00    6.61046D-02
         8    3.66879D-04  0.00D+00  3.67D-04  1.59D+00    7.71221D-02
         9    4.02467D-04  0.00D+00  4.02D-04  1.60D+00    8.81395D-02

 *** THE REQUESTED    9 SOLUTION VECTORS CONVERGED

 Convergence of RSP solution vectors, threshold = 1.00D-03
 ---------------------------------------------------------------
 (dimension of paired reduced space:   68)
 RSP solution vector no.    1; norm of residual   1.76D-04
 RSP solution vector no.    2; norm of residual   1.77D-04
 RSP solution vector no.    3; norm of residual   1.79D-04
 RSP solution vector no.    4; norm of residual   1.84D-04
 RSP solution vector no.    5; norm of residual   1.92D-04
 RSP solution vector no.    6; norm of residual   2.01D-04
 RSP solution vector no.    7; norm of residual   2.14D-04
 RSP solution vector no.    8; norm of residual   2.31D-04
 RSP solution vector no.    9; norm of residual   2.52D-04

 *** RSPCTL MICROITERATIONS CONVERGED


           Final output of second order properties from linear response
           ------------------------------------------------------------


@ Spin symmetry of operators: singlet

 Note that minus the linear response function: - << A; B >>(omega) is printed.
 The results are of quadratic accuracy using Sellers formula.

@ FREQUENCY INDEPENDENT SECOND ORDER PROPERTIES

@ -<< YDIPLEN  ; YDIPLEN  >> =  5.570257463292E+00

@ FREQUENCY DEPENDENT SECOND ORDER PROPERTIES WITH FREQUENCY :

@    a.u.:  1.1017437D-02
@    cm-1:  2.4180480D+03
@    eV  :  2.9979972D-01
@  kJ/mol:  2.8926278D+01
@    nm  :  4.1355672D+03

@ -<< YDIPLEN  ; YDIPLEN  >> =  5.570995423193E+00

@ FREQUENCY DEPENDENT SECOND ORDER PROPERTIES WITH FREQUENCY :

@    a.u.:  2.2034875D-02
@    cm-1:  4.8360960D+03
@    eV  :  5.9959945D-01
@  kJ/mol:  5.7852555D+01
@    nm  :  2.0677836D+03

@ -<< YDIPLEN  ; YDIPLEN  >> =  5.573211847154E+00

@ FREQUENCY DEPENDENT SECOND ORDER PROPERTIES WITH FREQUENCY :

@    a.u.:  3.3052313D-02
@    cm-1:  7.2541440D+03
@    eV  :  8.9939917D-01
@  kJ/mol:  8.6778833D+01
@    nm  :  1.3785224D+03

@ -<< YDIPLEN  ; YDIPLEN  >> =  5.576914470565E+00

@ FREQUENCY DEPENDENT SECOND ORDER PROPERTIES WITH FREQUENCY :

@    a.u.:  4.4069750D-02
@    cm-1:  9.6721920D+03
@    eV  :  1.1991989D+00
@  kJ/mol:  1.1570511D+02
@    nm  :  1.0338918D+03

@ -<< YDIPLEN  ; YDIPLEN  >> =  5.582116548583E+00

@ FREQUENCY DEPENDENT SECOND ORDER PROPERTIES WITH FREQUENCY :

@    a.u.:  5.5087187D-02
@    cm-1:  1.2090240D+04
@    eV  :  1.4989986D+00
@  kJ/mol:  1.4463139D+02
@    nm  :  8.2711344D+02

@ -<< YDIPLEN  ; YDIPLEN  >> =  5.588837481187E+00

@ FREQUENCY DEPENDENT SECOND ORDER PROPERTIES WITH FREQUENCY :

@    a.u.:  6.6104625D-02
@    cm-1:  1.4508288D+04
@    eV  :  1.7987983D+00
@  kJ/mol:  1.7355767D+02
@    nm  :  6.8926120D+02

@ -<< YDIPLEN  ; YDIPLEN  >> =  5.597103883456E+00

@ FREQUENCY DEPENDENT SECOND ORDER PROPERTIES WITH FREQUENCY :

@    a.u.:  7.7122062D-02
@    cm-1:  1.6926336D+04
@    eV  :  2.0985981D+00
@  kJ/mol:  2.0248394D+02
@    nm  :  5.9079531D+02

@ -<< YDIPLEN  ; YDIPLEN  >> =  5.606951396395E+00

@ FREQUENCY DEPENDENT SECOND ORDER PROPERTIES WITH FREQUENCY :

@    a.u.:  8.8139500D-02
@    cm-1:  1.9344384D+04
@    eV  :  2.3983978D+00
@  kJ/mol:  2.3141022D+02
@    nm  :  5.1694590D+02

@ -<< YDIPLEN  ; YDIPLEN  >> =  5.618427837971E+00


 Time used in linear response calculation is      2.21 CPU seconds for symmetry 3
 ----------------------------------------------------------------
 ----- Linear response calculation
 ----- Symmetry of excitation/property operator(s)    5  ( B1u)
 ----------------------------------------------------------------

 Number of excitations of this symmetry            0
 Number of response properties of this symmetry    1
 Number of C6/C8 properties of this symmetry       0


 Perturbation symmetry.     KSYMOP:           5
 Perturbation spin symmetry.TRPLET:           F
 Orbital variables.         KZWOPT:         169
 Configuration variables.   KZCONF:           0
 Total number of variables. KZVAR :         169


 RSPLR -- linear response calculation for symmetry 5  ( B1u)
 RSPLR -- operator label : ZDIPLEN 
 RSPLR -- operator spin  :   0
 RSPLR -- frequencies    :     0.000000  0.011017  0.022035  0.033052  0.044070
                               0.055087  0.066105  0.077122  0.088139



 ---  SOLVING SETS OF LINEAR EQUATIONS FOR LINEAR RESPONSE PROPERTIES ---

 Operator symmetry = 5  ( B1u); triplet =   F

RSPORT:    2 out of    9 new trial vectors linear dependent

 ** RSPCTL MICROITERATION NUMBER    1

       No.  Residual tot.,    conf., and orb.    Bnorm      Frequency 
      ----------------------------------------------------------------
         1    3.69428D+00  0.00D+00  3.69D+00  2.41D+00    0.00000D+00
         2    3.69557D+00  0.00D+00  3.70D+00  2.41D+00    1.10174D-02
         3    3.69943D+00  0.00D+00  3.70D+00  2.42D+00    2.20349D-02
         4    3.70590D+00  0.00D+00  3.71D+00  2.43D+00    3.30523D-02
         5    3.71499D+00  0.00D+00  3.71D+00  2.44D+00    4.40697D-02
         6    3.72675D+00  0.00D+00  3.73D+00  2.45D+00    5.50872D-02
         7    3.74122D+00  0.00D+00  3.74D+00  2.47D+00    6.61046D-02
         8    3.75847D+00  0.00D+00  3.76D+00  2.48D+00    7.71221D-02
         9    3.77858D+00  0.00D+00  3.78D+00  2.51D+00    8.81395D-02

 ** RSPCTL MICROITERATION NUMBER    2

       No.  Residual tot.,    conf., and orb.    Bnorm      Frequency 
      ----------------------------------------------------------------
         1    8.89492D-01  0.00D+00  8.89D-01  3.36D+00    0.00000D+00
         2    8.90018D-01  0.00D+00  8.90D-01  3.36D+00    1.10174D-02
         3    8.91597D-01  0.00D+00  8.92D-01  3.37D+00    2.20349D-02
         4    8.94240D-01  0.00D+00  8.94D-01  3.39D+00    3.30523D-02
         5    8.97965D-01  0.00D+00  8.98D-01  3.40D+00    4.40697D-02
         6    9.02798D-01  0.00D+00  9.03D-01  3.43D+00    5.50872D-02
         7    9.08770D-01  0.00D+00  9.09D-01  3.46D+00    6.61046D-02
         8    9.15924D-01  0.00D+00  9.16D-01  3.49D+00    7.71221D-02
         9    9.24309D-01  0.00D+00  9.24D-01  3.54D+00    8.81395D-02

 ** RSPCTL MICROITERATION NUMBER    3

       No.  Residual tot.,    conf., and orb.    Bnorm      Frequency 
      ----------------------------------------------------------------
         1    8.27722D-02  0.00D+00  8.28D-02  3.42D+00    0.00000D+00
         2    8.28297D-02  0.00D+00  8.28D-02  3.42D+00    1.10174D-02
         3    8.30027D-02  0.00D+00  8.30D-02  3.43D+00    2.20349D-02
         4    8.32924D-02  0.00D+00  8.33D-02  3.44D+00    3.30523D-02
         5    8.37008D-02  0.00D+00  8.37D-02  3.46D+00    4.40697D-02
         6    8.42308D-02  0.00D+00  8.42D-02  3.49D+00    5.50872D-02
         7    8.48863D-02  0.00D+00  8.49D-02  3.52D+00    6.61046D-02
         8    8.56721D-02  0.00D+00  8.57D-02  3.56D+00    7.71221D-02
         9    8.65940D-02  0.00D+00  8.66D-02  3.60D+00    8.81395D-02

 ** RSPCTL MICROITERATION NUMBER    4

       No.  Residual tot.,    conf., and orb.    Bnorm      Frequency 
      ----------------------------------------------------------------
         1    6.00116D-03  0.00D+00  6.00D-03  3.42D+00    0.00000D+00
         2    6.00612D-03  0.00D+00  6.01D-03  3.42D+00    1.10174D-02
         3    6.02101D-03  0.00D+00  6.02D-03  3.43D+00    2.20349D-02
         4    6.04597D-03  0.00D+00  6.05D-03  3.44D+00    3.30523D-02
         5    6.08117D-03  0.00D+00  6.08D-03  3.46D+00    4.40697D-02
         6    6.12690D-03  0.00D+00  6.13D-03  3.49D+00    5.50872D-02
         7    6.18351D-03  0.00D+00  6.18D-03  3.52D+00    6.61046D-02
         8    6.25145D-03  0.00D+00  6.25D-03  3.56D+00    7.71221D-02
         9    6.33128D-03  0.00D+00  6.33D-03  3.60D+00    8.81395D-02

 ** RSPCTL MICROITERATION NUMBER    5

       No.  Residual tot.,    conf., and orb.    Bnorm      Frequency 
      ----------------------------------------------------------------
         1    3.85537D-04  0.00D+00  3.86D-04  3.42D+00    0.00000D+00
         2    3.86013D-04  0.00D+00  3.86D-04  3.42D+00    1.10174D-02
         3    3.87447D-04  0.00D+00  3.87D-04  3.43D+00    2.20349D-02
         4    3.89850D-04  0.00D+00  3.90D-04  3.44D+00    3.30523D-02
         5    3.93244D-04  0.00D+00  3.93D-04  3.46D+00    4.40697D-02
         6    3.97661D-04  0.00D+00  3.98D-04  3.49D+00    5.50872D-02
         7    4.03142D-04  0.00D+00  4.03D-04  3.52D+00    6.61046D-02
         8    4.09737D-04  0.00D+00  4.10D-04  3.56D+00    7.71221D-02
         9    4.17510D-04  0.00D+00  4.18D-04  3.60D+00    8.81395D-02

 *** THE REQUESTED    9 SOLUTION VECTORS CONVERGED

 Convergence of RSP solution vectors, threshold = 1.00D-03
 ---------------------------------------------------------------
 (dimension of paired reduced space:   86)
 RSP solution vector no.    1; norm of residual   1.13D-04
 RSP solution vector no.    2; norm of residual   1.13D-04
 RSP solution vector no.    3; norm of residual   1.13D-04
 RSP solution vector no.    4; norm of residual   1.13D-04
 RSP solution vector no.    5; norm of residual   1.14D-04
 RSP solution vector no.    6; norm of residual   1.14D-04
 RSP solution vector no.    7; norm of residual   1.15D-04
 RSP solution vector no.    8; norm of residual   1.15D-04
 RSP solution vector no.    9; norm of residual   1.16D-04

 *** RSPCTL MICROITERATIONS CONVERGED


           Final output of second order properties from linear response
           ------------------------------------------------------------


@ Spin symmetry of operators: singlet

 Note that minus the linear response function: - << A; B >>(omega) is printed.
 The results are of quadratic accuracy using Sellers formula.

@ FREQUENCY INDEPENDENT SECOND ORDER PROPERTIES

@ -<< ZDIPLEN  ; ZDIPLEN  >> =  1.465037448495E+01

@ FREQUENCY DEPENDENT SECOND ORDER PROPERTIES WITH FREQUENCY :

@    a.u.:  1.1017437D-02
@    cm-1:  2.4180480D+03
@    eV  :  2.9979972D-01
@  kJ/mol:  2.8926278D+01
@    nm  :  4.1355672D+03

@ -<< ZDIPLEN  ; ZDIPLEN  >> =  1.465646112748E+01

@ FREQUENCY DEPENDENT SECOND ORDER PROPERTIES WITH FREQUENCY :

@    a.u.:  2.2034875D-02
@    cm-1:  4.8360960D+03
@    eV  :  5.9959945D-01
@  kJ/mol:  5.7852555D+01
@    nm  :  2.0677836D+03

@ -<< ZDIPLEN  ; ZDIPLEN  >> =  1.467475897383E+01

@ FREQUENCY DEPENDENT SECOND ORDER PROPERTIES WITH FREQUENCY :

@    a.u.:  3.3052313D-02
@    cm-1:  7.2541440D+03
@    eV  :  8.9939917D-01
@  kJ/mol:  8.6778833D+01
@    nm  :  1.3785224D+03

@ -<< ZDIPLEN  ; ZDIPLEN  >> =  1.470538239786E+01

@ FREQUENCY DEPENDENT SECOND ORDER PROPERTIES WITH FREQUENCY :

@    a.u.:  4.4069750D-02
@    cm-1:  9.6721920D+03
@    eV  :  1.1991989D+00
@  kJ/mol:  1.1570511D+02
@    nm  :  1.0338918D+03

@ -<< ZDIPLEN  ; ZDIPLEN  >> =  1.474852410033E+01

@ FREQUENCY DEPENDENT SECOND ORDER PROPERTIES WITH FREQUENCY :

@    a.u.:  5.5087187D-02
@    cm-1:  1.2090240D+04
@    eV  :  1.4989986D+00
@  kJ/mol:  1.4463139D+02
@    nm  :  8.2711344D+02

@ -<< ZDIPLEN  ; ZDIPLEN  >> =  1.480445829301E+01

@ FREQUENCY DEPENDENT SECOND ORDER PROPERTIES WITH FREQUENCY :

@    a.u.:  6.6104625D-02
@    cm-1:  1.4508288D+04
@    eV  :  1.7987983D+00
@  kJ/mol:  1.7355767D+02
@    nm  :  6.8926120D+02

@ -<< ZDIPLEN  ; ZDIPLEN  >> =  1.487354529525E+01

@ FREQUENCY DEPENDENT SECOND ORDER PROPERTIES WITH FREQUENCY :

@    a.u.:  7.7122062D-02
@    cm-1:  1.6926336D+04
@    eV  :  2.0985981D+00
@  kJ/mol:  2.0248394D+02
@    nm  :  5.9079531D+02

@ -<< ZDIPLEN  ; ZDIPLEN  >> =  1.495623769010E+01

@ FREQUENCY DEPENDENT SECOND ORDER PROPERTIES WITH FREQUENCY :

@    a.u.:  8.8139500D-02
@    cm-1:  1.9344384D+04
@    eV  :  2.3983978D+00
@  kJ/mol:  2.3141022D+02
@    nm  :  5.1694590D+02

@ -<< ZDIPLEN  ; ZDIPLEN  >> =  1.505308824217E+01


 Time used in linear response calculation is      2.79 CPU seconds for symmetry 5

  Total CPU  time used in RESPONSE:   7.20 seconds
  Total wall time used in RESPONSE:   7.22 seconds


                   .-------------------------------------------.
                   | End of Dynamic Property Section (RESPONS) |
                   `-------------------------------------------'

  Total CPU  time used in DALTON:   9.35 seconds
  Total wall time used in DALTON:   9.38 seconds

 
     Date and time (Linux)  : Wed Jan 11 14:16:46 2023
     Host name              : cn040                                   
