

     ************************************************************************
     *************** Dalton - An Electronic Structure Program ***************
     ************************************************************************

    This is output from DALTON release Dalton2020.0 (2020)
         ( Web site: http://daltonprogram.org )

   ----------------------------------------------------------------------------

    NOTE:
     
    Dalton is an experimental code for the evaluation of molecular
    properties using (MC)SCF, DFT, CI, and CC wave functions.
    The authors accept no responsibility for the performance of
    the code or for the correctness of the results.
     
    The code (in whole or part) is provided under a licence and
    is not to be reproduced for further distribution without
    the written permission of the authors or their representatives.
     
    See the home page "http://daltonprogram.org" for further information.
     
    If results obtained with this code are published,
    the appropriate citations would be both of:
     
       K. Aidas, C. Angeli, K. L. Bak, V. Bakken, R. Bast,
       L. Boman, O. Christiansen, R. Cimiraglia, S. Coriani,
       P. Dahle, E. K. Dalskov, U. Ekstroem,
       T. Enevoldsen, J. J. Eriksen, P. Ettenhuber, B. Fernandez,
       L. Ferrighi, H. Fliegl, L. Frediani, K. Hald, A. Halkier,
       C. Haettig, H. Heiberg, T. Helgaker, A. C. Hennum,
       H. Hettema, E. Hjertenaes, S. Hoest, I.-M. Hoeyvik,
       M. F. Iozzi, B. Jansik, H. J. Aa. Jensen, D. Jonsson,
       P. Joergensen, J. Kauczor, S. Kirpekar,
       T. Kjaergaard, W. Klopper, S. Knecht, R. Kobayashi, H. Koch,
       J. Kongsted, A. Krapp, K. Kristensen, A. Ligabue,
       O. B. Lutnaes, J. I. Melo, K. V. Mikkelsen, R. H. Myhre,
       C. Neiss, C. B. Nielsen, P. Norman, J. Olsen,
       J. M. H. Olsen, A. Osted, M. J. Packer, F. Pawlowski,
       T. B. Pedersen, P. F. Provasi, S. Reine, Z. Rinkevicius,
       T. A. Ruden, K. Ruud, V. Rybkin, P. Salek, C. C. M. Samson,
       A. Sanchez de Meras, T. Saue, S. P. A. Sauer,
       B. Schimmelpfennig, K. Sneskov, A. H. Steindal,
       K. O. Sylvester-Hvid, P. R. Taylor, A. M. Teale,
       E. I. Tellgren, D. P. Tew, A. J. Thorvaldsen, L. Thoegersen,
       O. Vahtras, M. A. Watson, D. J. D. Wilson, M. Ziolkowski
       and H. Agren,
       "The Dalton quantum chemistry program system",
       WIREs Comput. Mol. Sci. 2014, 4:269–284 (doi: 10.1002/wcms.1172)
     
    and
     
       Dalton, a molecular electronic structure program,
       Release Dalton2020.0 (2020), see http://daltonprogram.org
   ----------------------------------------------------------------------------

    Authors in alphabetical order (Major contribution(s) in parenthesis):

  Kestutis Aidas,           Vilnius University,           Lithuania   (QM/MM)
  Celestino Angeli,         University of Ferrara,        Italy       (NEVPT2)
  Keld L. Bak,              UNI-C,                        Denmark     (AOSOPPA, non-adiabatic coupling, magnetic properties)
  Vebjoern Bakken,          University of Oslo,           Norway      (DALTON; geometry optimizer, symmetry detection)
  Radovan Bast,             UiT The Arctic U. of Norway,  Norway      (DALTON installation and execution frameworks)
  Pablo Baudin,             University of Valencia,       Spain       (Cholesky excitation energies)
  Linus Boman,              NTNU,                         Norway      (Cholesky decomposition and subsystems)
  Bruno N. Cabral Tenorio,  Technical Univ. of Denmark,   Denmark     (Lanczos-based CC methods)
  Ove Christiansen,         Aarhus University,            Denmark     (CC module)
  Renzo Cimiraglia,         University of Ferrara,        Italy       (NEVPT2)
  Sonia Coriani,            Technical Univ. of Denmark,   Denmark     (CC and RESPONS modules)
  Janusz Cukras,            University of Warsaw,         Poland      (MChD in RESPONS)
  Paal Dahle,               University of Oslo,           Norway      (Parallelization)
  Erik K. Dalskov,          UNI-C,                        Denmark     (SOPPA)
  Thomas Enevoldsen,        Univ. of Southern Denmark,    Denmark     (SOPPA)
  Janus J. Eriksen,         Aarhus University,            Denmark     (Polarizable embedding, TDA)
  Rasmus Faber,             Technical Univ. of Denmark,   Denmark     (Vib.avg. NMR w. SOPPA, parallel AO-SOPPA, CVS-CC and EOMCC)
  Tobias Fahleson,          KTH Stockholm,                Sweden      (Damped cubic response)
  Berta Fernandez,          U. of Santiago de Compostela, Spain       (Doublet spin, ESR in RESPONS)
  Lara Ferrighi,            Aarhus University,            Denmark     (PCM Cubic response)
  Heike Fliegl,             University of Oslo,           Norway      (CCSD(R12))
  Luca Frediani,            UiT The Arctic U. of Norway,  Norway      (PCM)
  Emmanuel Fromager,        Univ. Strasbourg,             France      (MC-srDFT)
  Bin Gao,                  UiT The Arctic U. of Norway,  Norway      (Gen1Int library)
  Andre S. P. Gomes,        CNRS/Universite de Lille,     France      (Frozen density embedding)
  Christof Haettig,         Ruhr-University Bochum,       Germany     (CC module)
  Kasper Hald,              Aarhus University,            Denmark     (CC module)
  Asger Halkier,            Aarhus University,            Denmark     (CC module)
  Frederik Beyer Hansen,    University of Copenhagen,     Denmark     (Parallel AO-SOPPA)
  Erik D. Hedegaard,        Univ. of Southern Denmark,    Denmark     (Polarizable embedding, QM/MM, and MC-srDFT)
  Hanne Heiberg,            University of Oslo,           Norway      (Geometry analysis, selected one-electron integrals)
  Trygve Helgaker,          University of Oslo,           Norway      (DALTON; ABACUS, ERI, DFT modules, London, and much more)
  Alf Christian Hennum,     University of Oslo,           Norway      (Parity violation)
  Hinne Hettema,            University of Auckland,       New Zealand (Quadratic response in RESPONS; SIRIUS supersymmetry)
  Eirik Hjertenaes,         NTNU,                         Norway      (Cholesky decomposition)
  Pi A. B. Haase,           University of Copenhagen,     Denmark     (Triplet AO-SOPPA)
  Maria Francesca Iozzi,    University of Oslo,           Norway      (RPA)
  Christoph Jacob           TU Braunschweig               Germany     (Frozen density embedding)
  Brano Jansik              Technical Univ. of Ostrava    Czech Rep.  (DFT cubic response)
  Hans Joergen Aa. Jensen,  Univ. of Southern Denmark,    Denmark     (DALTON; SIRIUS, RESPONS, ABACUS, MC-srDFT, and much more)
  Dan Jonsson,              UiT The Arctic U. of Norway,  Norway      (Cubic response in RESPONS module)
  Poul Joergensen,          Aarhus University,            Denmark     (RESPONS, ABACUS, and CC modules)
  Maciej Kaminski,          University of Warsaw,         Poland      (CPPh in RESPONS)
  Joanna Kauczor,           Linkoeping University,        Sweden      (Complex polarization propagator (CPP) module)
  Sheela Kirpekar,          Univ. of Southern Denmark,    Denmark     (Mass-velocity & Darwin integrals)
  Erik Kjellgren,           Univ. of Southern Denmark,    Denmark     (MC-srDFT)
  Wim Klopper,              KIT Karlsruhe,                Germany     (R12 code in CC, SIRIUS, and ABACUS modules)
  Stefan Knecht,            ETH Zurich,                   Switzerland (Parallel CI and MCSCF, MC-srDFT)
  Rika Kobayashi,           Australian National Univ.,    Australia   (DIIS in CC, London in MCSCF)
  Henrik Koch,              NTNU,                         Norway      (CC module, Cholesky decomposition)
  Jacob Kongsted,           Univ. of Southern Denmark,    Denmark     (Polarizable embedding, polarizable density embedding, QM/MM)
  Andrea Ligabue,           University of Modena,         Italy       (CTOCD, AOSOPPA)
  Nanna H. List             Univ. of Southern Denmark,    Denmark     (Polarizable embedding)
  Ola B. Lutnaes,           University of Oslo,           Norway      (DFT Hessian)
  Juan I. Melo,             University of Buenos Aires,   Argentina   (LRESC, Relativistic Effects on NMR Shieldings)
  Kurt V. Mikkelsen,        University of Copenhagen,     Denmark     (MC-SCRF and QM/MM)
  Rolf H. Myhre,            NTNU,                         Norway      (Subsystems and CC3)
  Christian Neiss,          Univ. Erlangen-Nuernberg,     Germany     (CCSD(R12))
  Christian B. Nielsen,     University of Copenhagen,     Denmark     (QM/MM)
  Patrick Norman,           KTH Stockholm,                Sweden      (Cubic response and complex frequency response in RESPONS)
  Jeppe Olsen,              Aarhus University,            Denmark     (SIRIUS CI/density modules)
  Jogvan Magnus H. Olsen,   Aarhus University,            Denmark     (Polarizable embedding and polarizable density embedding)
  Anders Osted,             Copenhagen University,        Denmark     (QM/MM)
  Martin J. Packer,         University of Sheffield,      UK          (SOPPA)
  Filip Pawlowski,          Kazimierz Wielki University,  Poland      (CC3)
  Morten N. Pedersen,       Univ. of Southern Denmark,    Denmark     (Polarizable embedding)
  Thomas B. Pedersen,       University of Oslo,           Norway      (Cholesky decomposition)
  Patricio F. Provasi,      University of Northeastern,   Argentina   (Analysis of coupling constants in localized orbitals)
  Peter Reinholdt,          Univ. of Southern Denmark,    Denmark     (Polarizable embedding and polarizable density embedding)
  Zilvinas Rinkevicius,     KTH Stockholm,                Sweden      (open-shell DFT, ESR)
  Elias Rudberg,            KTH Stockholm,                Sweden      (DFT grid and basis info)
  Torgeir A. Ruden,         University of Oslo,           Norway      (Numerical derivatives in ABACUS)
  Kenneth Ruud,             UiT The Arctic U. of Norway,  Norway      (DALTON; ABACUS magnetic properties and much more)
  Pawel Salek,              KTH Stockholm,                Sweden      (DALTON; DFT code)
  Claire C. M. Samson       University of Karlsruhe       Germany     (Boys localization, r12 integrals in ERI)
  Alfredo Sanchez de Meras, University of Valencia,       Spain       (CC module, Cholesky decomposition)
  Trond Saue,               Paul Sabatier University,     France      (direct Fock matrix construction)
  Stephan P. A. Sauer,      University of Copenhagen,     Denmark     (SOPPA(CCSD), SOPPA prop., AOSOPPA, vibrational g-factors)
  Bernd Schimmelpfennig,    Forschungszentrum Karlsruhe,  Germany     (AMFI module)
  Anna K. Schnack-Petersen, University of Copenhagen,     Denmark     (RPA(D) and HRPA(D) properties in AOSOPPA)
  Kristian Sneskov,         Aarhus University,            Denmark     (Polarizable embedding, QM/MM)
  Arnfinn H. Steindal,      UiT The Arctic U. of Norway,  Norway      (parallel QM/MM, polarizable embedding)
  Casper Steinmann,         Aalborg University,           Denmark     (QFIT, polarizable embedding)
  K. O. Sylvester-Hvid,     University of Copenhagen,     Denmark     (MC-SCRF)
  Peter R. Taylor,          VLSCI/Univ. of Melbourne,     Australia   (Symmetry handling ABACUS, integral transformation)
  Andrew M. Teale,          University of Nottingham,     England     (DFT-AC, DFT-D)
  David P. Tew,             University of Bristol,        England     (CCSD(R12))
  Julien Toulouse,          Sorbonne Univ.,               France      (MC-srDFT)
  Olav Vahtras,             KTH Stockholm,                Sweden      (Triplet response, spin-orbit, ESR, TDDFT, open-shell DFT)
  Lucas Visscher,           Vrije Universiteit Amsterdam, Netherlands (Frozen density embedding)
  David J. Wilson,          La Trobe University,          Australia   (DFT Hessian and DFT magnetizabilities)
  Hans Agren,               KTH Stockholm,                Sweden      (SIRIUS module, RESPONS, MC-SCRF solvation)
 --------------------------------------------------------------------------------

     Date and time (Linux)  : Wed Jan 11 14:16:33 2023
     Host name              : cn040                                   

 * Work memory size             :    64000000 =  488.28 megabytes.

 * Directories for basis set searches:
   1) /gpfs/projects/rjh/adrian/fd_compare/dalton/hf/F2/dipole
   2) /gpfs/projects/rjh/adrian/dalton/build/basis


Compilation information
-----------------------

 Who compiled             | ahurtado
 Host                     | sn-mem
 System                   | Linux-3.10.0-1160.24.1.el7.x86_64
 CMake generator          | Unix Makefiles
 Processor                | x86_64
 64-bit integers          | OFF
 MPI                      | ON
 Fortran compiler         | /gpfs/software/intel/oneAPI/2021_4/mpi/2021.4.0/bi
                          | n/mpif90
 Fortran compiler version | GNU Fortran (GCC) 11.2.0
 C compiler               | /gpfs/software/intel/oneAPI/2021_4/mpi/2021.4.0/bi
                          | n/mpicc
 C compiler version       | gcc (GCC) 11.2.0
 C++ compiler             | /gpfs/software/intel/oneAPI/2021_4/mpi/2021.4.0/bi
                          | n/mpicxx
 C++ compiler version     | unknown
 BLAS                     | /gpfs/software/intel/oneAPI/2021_4/mkl/2021.4.0/li
                          | b/intel64/libmkl_gf_lp64.so;/gpfs/software/intel/o
                          | neAPI/2021_4/mkl/2021.4.0/lib/intel64/libmkl_seque
                          | ntial.so;/gpfs/software/intel/oneAPI/2021_4/mkl/20
                          | 21.4.0/lib/intel64/libmkl_core.so;/usr/lib64/libpt
                          | hread.so;/usr/lib64/libm.so
 LAPACK                   | /gpfs/software/intel/oneAPI/2021_4/mkl/2021.4.0/li
                          | b/intel64/libmkl_lapack95_lp64.a;/gpfs/software/in
                          | tel/oneAPI/2021_4/mkl/2021.4.0/lib/intel64/libmkl_
                          | gf_lp64.so
 Static linking           | OFF
 Last Git revision        | 66052b3af5ea7225e31178bf9a8b031913c72190
 Git branch               | (HEAD detached at Dalton2020.0)
 Configuration time       | 2023-01-11 13:33:37.731835

 * MPI parallel run using 20 processes.


   Content of the .dal input file
 ----------------------------------

**DALTON INPUT
.RUN RESPONSE
.DIRECT
**WAVE FUNCTIONS
.HF
**RESPONSE
*LINEAR
.DIPLEN
.FREQUENCIES
9
0.0 0.0110174375 0.022034875 0.0330523125 0.04406975 0.055087187499999996 0.066104625 0.077122062499
**END OF DALTON INPUT


   Content of the .mol file
 ----------------------------

BASIS
d-aug-cc-pVDZ
blah
blah
Atomtype=1 Atomic
Charge=9 Atoms=2
F_a 0.000000000000 0.000000000000 0.000000000000
F_b 0.000000000000 0.000000000000 2.668160000000


       *******************************************************************
       *********** Output from DALTON general input processing ***********
       *******************************************************************

 --------------------------------------------------------------------------------
   Overall default print level:    0
   Print level for DALTON.STAT:    1

    Parallel calculation using MPI
    AO-direct calculation (in sections where implemented)
    HERMIT 1- and 2-electron integral sections will be executed
    "Old" integral transformation used (limited to max 255 basis functions)
    Wave function sections will be executed (SIRIUS module)
    Dynamic molecular response properties section will be executed (RESPONSE module)
 --------------------------------------------------------------------------------


   ****************************************************************************
   *************** Output of molecule and basis set information ***************
   ****************************************************************************


    The two title cards from your ".mol" input:
    ------------------------------------------------------------------------
 1: blah                                                                    
 2: blah                                                                    
    ------------------------------------------------------------------------

  Atomic type no.    1
  --------------------
  Nuclear charge:   9.00000
  Number of symmetry independent centers:    2
  Number of basis sets to read;    2
  Basis set file used for this atomic type with Z =   9 :
     "/gpfs/projects/rjh/adrian/dalton/build/basis/aug-cc-pVDZ"


                      SYMADD: Requested addition of symmetry
                      --------------------------------------

 Symmetry test threshold:  5.00E-06

@   The molecule is centered at center of mass and rotated
@   so principal axes of inertia are along coordinate axes.

 Symmetry class found: D(oo,h)        

 Symmetry Independent Centres             
 ----------------------------
F_b    9 :      0.00000000     0.00000000     1.33408000  Isotope  1

 The following symmetry elements were found:   X  Y  Z  


                         SYMGRP: Point group information
                         -------------------------------

@    Full point group is: D(oo,h)        
@    Represented as:      D2h

@  * The irrep name for each symmetry:    1: Ag     2: B3u    3: B2u    4: B1g    5: B1u    6: B2g    7: B3g    8: Au 


   * The point group was generated by:

      Reflection in the yz-plane
      Reflection in the xz-plane
      Reflection in the xy-plane

   * Group multiplication table

        |  E   C2z  C2y  C2x   i   Oxy  Oxz  Oyz
   -----+----------------------------------------
     E  |  E   C2z  C2y  C2x   i   Oxy  Oxz  Oyz
    C2z | C2z   E   C2x  C2y  Oxy   i   Oyz  Oxz
    C2y | C2y  C2x   E   C2z  Oxz  Oyz   i   Oxy
    C2x | C2x  C2y  C2z   E   Oyz  Oxz  Oxy   i 
     i  |  i   Oxy  Oxz  Oyz   E   C2z  C2y  C2x
    Oxy | Oxy   i   Oyz  Oxz  C2z   E   C2x  C2y
    Oxz | Oxz  Oyz   i   Oxy  C2y  C2x   E   C2z
    Oyz | Oyz  Oxz  Oxy   i   C2x  C2y  C2z   E 

   * Character table

        |  E   C2z  C2y  C2x   i   Oxy  Oxz  Oyz
   -----+----------------------------------------
    Ag  |   1    1    1    1    1    1    1    1
    B3u |   1   -1   -1    1   -1    1    1   -1
    B2u |   1   -1    1   -1   -1    1   -1    1
    B1g |   1    1   -1   -1    1    1   -1   -1
    B1u |   1    1   -1   -1   -1   -1    1    1
    B2g |   1   -1    1   -1    1   -1    1   -1
    B3g |   1   -1   -1    1    1   -1   -1    1
    Au  |   1    1    1    1   -1   -1   -1   -1

   * Direct product table

        | Ag   B3u  B2u  B1g  B1u  B2g  B3g  Au 
   -----+----------------------------------------
    Ag  | Ag   B3u  B2u  B1g  B1u  B2g  B3g  Au 
    B3u | B3u  Ag   B1g  B2u  B2g  B1u  Au   B3g
    B2u | B2u  B1g  Ag   B3u  B3g  Au   B1u  B2g
    B1g | B1g  B2u  B3u  Ag   Au   B3g  B2g  B1u
    B1u | B1u  B2g  B3g  Au   Ag   B3u  B2u  B1g
    B2g | B2g  B1u  Au   B3g  B3u  Ag   B1g  B2u
    B3g | B3g  Au   B1u  B2g  B2u  B1g  Ag   B3u
    Au  | Au   B3g  B2g  B1u  B1g  B2u  B3u  Ag 


                                 Isotopic Masses
                                 ---------------

                           F_b _1     18.998403
                           F_b _2     18.998403

                       Total mass:    37.996806 amu
                       Natural abundance: 100.000 %

 Center-of-mass coordinates (a.u.):    0.000000    0.000000    0.000000
 Center-of-mass coordinates (Angs):    0.000000    0.000000    0.000000


  Atoms and basis sets
  --------------------

  Number of atom types :    1
  Total number of atoms:    2

  Basis set used is "d-aug-cc-pVDZ" from the basis set library.

  label    atoms   charge   prim   cont     basis
  ----------------------------------------------------------------------
  F_          2    9.0000    44    32      [11s6p3d|5s4p3d]                                   
  ----------------------------------------------------------------------
  total:      2   18.0000    88    64
  ----------------------------------------------------------------------
  Spherical harmonic basis used.

  Threshold for neglecting AO integrals:  1.00D-12


  Cartesian Coordinates (a.u.)
  ----------------------------

  Total number of coordinates:    6
  F_b / 1 :     1  x   0.0000000000    2  y   0.0000000000    3  z   1.3340800000
  F_b / 2 :     4  x   0.0000000000    5  y   0.0000000000    6  z  -1.3340800000


  Symmetry Coordinates
  --------------------

  Number of coordinates in each symmetry:     1    1    1    0    1    1    1    0

  Symmetry  Ag  ( 1)

    1   F_b   z    [  3  -    6 ]/2

  Symmetry  B3u ( 2)

    2   F_b   x    [  1  +    4 ]/2

  Symmetry  B2u ( 3)

    3   F_b   y    [  2  +    5 ]/2

  Symmetry  B1u ( 5)

    4   F_b   z    [  3  +    6 ]/2

  Symmetry  B2g ( 6)

    5   F_b   x    [  1  -    4 ]/2

  Symmetry  B3g ( 7)

    6   F_b   y    [  2  -    5 ]/2


   Interatomic separations (in Angstrom):
   --------------------------------------

            F_b _1      F_b _2
            ------      ------
 F_b _1:    0.000000
 F_b _2:    1.411929    0.000000


  Max    interatomic separation is    1.4119 Angstrom (    2.6682 Bohr)
  between atoms    2 and    1, "F_b _2" and "F_b _1".

  Min YX interatomic separation is    1.4119 Angstrom (    2.6682 Bohr)


  Bond distances (Angstrom):
  --------------------------

                  atom 1     atom 2       distance
                  ------     ------       --------
  bond distance:  F_b _2     F_b _1       1.411929




 Principal moments of inertia (u*A**2) and principal axes
 --------------------------------------------------------

   IA       0.000000          0.000000    0.000000    1.000000
   IB      18.937084          0.000000    1.000000    0.000000
   IC      18.937084          1.000000    0.000000    0.000000


 Rotational constants
 --------------------

@    The molecule is linear.

               B =        26687.27 MHz     (    0.890191 cm-1)


@  Nuclear repulsion energy :   30.357999520269 Hartree


  Symmetry Orbitals
  -----------------

  Number of orbitals in each symmetry:          15    7    7    3   15    7    7    3


  Symmetry  Ag ( 1)

    1     F_b      1s         1 +    2
    2     F_b      1s         3 +    4
    3     F_b      1s         5 +    6
    4     F_b      1s         7 +    8
    5     F_b      1s         9 +   10
    6     F_b      2pz       15 -   16
    7     F_b      2pz       21 -   22
    8     F_b      2pz       27 -   28
    9     F_b      2pz       33 -   34
   10     F_b      3d0       39 +   40
   11     F_b      3d2+      43 +   44
   12     F_b      3d0       49 +   50
   13     F_b      3d2+      53 +   54
   14     F_b      3d0       59 +   60
   15     F_b      3d2+      63 +   64


  Symmetry  B3u( 2)

   16     F_b      2px       11 +   12
   17     F_b      2px       17 +   18
   18     F_b      2px       23 +   24
   19     F_b      2px       29 +   30
   20     F_b      3d1+      41 -   42
   21     F_b      3d1+      51 -   52
   22     F_b      3d1+      61 -   62


  Symmetry  B2u( 3)

   23     F_b      2py       13 +   14
   24     F_b      2py       19 +   20
   25     F_b      2py       25 +   26
   26     F_b      2py       31 +   32
   27     F_b      3d1-      37 -   38
   28     F_b      3d1-      47 -   48
   29     F_b      3d1-      57 -   58


  Symmetry  B1g( 4)

   30     F_b      3d2-      35 +   36
   31     F_b      3d2-      45 +   46
   32     F_b      3d2-      55 +   56


  Symmetry  B1u( 5)

   33     F_b      1s         1 -    2
   34     F_b      1s         3 -    4
   35     F_b      1s         5 -    6
   36     F_b      1s         7 -    8
   37     F_b      1s         9 -   10
   38     F_b      2pz       15 +   16
   39     F_b      2pz       21 +   22
   40     F_b      2pz       27 +   28
   41     F_b      2pz       33 +   34
   42     F_b      3d0       39 -   40
   43     F_b      3d2+      43 -   44
   44     F_b      3d0       49 -   50
   45     F_b      3d2+      53 -   54
   46     F_b      3d0       59 -   60
   47     F_b      3d2+      63 -   64


  Symmetry  B2g( 6)

   48     F_b      2px       11 -   12
   49     F_b      2px       17 -   18
   50     F_b      2px       23 -   24
   51     F_b      2px       29 -   30
   52     F_b      3d1+      41 +   42
   53     F_b      3d1+      51 +   52
   54     F_b      3d1+      61 +   62


  Symmetry  B3g( 7)

   55     F_b      2py       13 -   14
   56     F_b      2py       19 -   20
   57     F_b      2py       25 -   26
   58     F_b      2py       31 -   32
   59     F_b      3d1-      37 +   38
   60     F_b      3d1-      47 +   48
   61     F_b      3d1-      57 +   58


  Symmetry  Au ( 8)

   62     F_b      3d2-      35 -   36
   63     F_b      3d2-      45 -   46
   64     F_b      3d2-      55 -   56

  Symmetries of electric field:  B3u(2)  B2u(3)  B1u(5)

  Symmetries of magnetic field:  B3g(7)  B2g(6)  B1g(4)


                     .---------------------------------------.
                     | Starting in Integral Section (HERMIT) |
                     `---------------------------------------'



 ***************************************************************************************
 ****************** Output from **INTEGRALS input processing (HERMIT) ******************
 ***************************************************************************************


 - Using defaults, no **INTEGRALS input found

 Default print level:        1

 Calculation of one-electron Hamiltonian integrals.

 Center of mass  (bohr):      0.000000000000      0.000000000000      0.000000000000
 Operator center (bohr):      0.000000000000      0.000000000000      0.000000000000
 Gauge origin    (bohr):      0.000000000000      0.000000000000      0.000000000000
 Dipole origin   (bohr):      0.000000000000      0.000000000000      0.000000000000


     ************************************************************************
     ************************** Output from HERINT **************************
     ************************************************************************



                      Nuclear contribution to dipole moments
                      --------------------------------------

                    All dipole components are zero by symmetry


  Total CPU  time used in HERMIT:   0.04 seconds
  Total wall time used in HERMIT:   0.04 seconds


                        .----------------------------------.
                        | End of Integral Section (HERMIT) |
                        `----------------------------------'



                   .--------------------------------------------.
                   | Starting in Wave Function Section (SIRIUS) |
                   `--------------------------------------------'


 *** Output from Huckel module :

     Using EWMO model:          F
     Using EHT  model:          T
     Number of Huckel orbitals each symmetry:    3    1    1    0    3    1    1    0

 Huckel EHT eigenvalues for symmetry :  1
          -26.385657      -1.787625      -0.792360

 Huckel EHT eigenvalues for symmetry :  2
           -0.800215

 Huckel EHT eigenvalues for symmetry :  3
           -0.800215

 Huckel EHT eigenvalues for symmetry :  5
          -26.385463      -1.454670      -0.564625

 Huckel EHT eigenvalues for symmetry :  6
           -0.659785

 Huckel EHT eigenvalues for symmetry :  7
           -0.659785

 **********************************************************************
 *SIRIUS* a direct, restricted step, second order MCSCF program       *
 **********************************************************************

 
     Date and time (Linux)  : Wed Jan 11 14:16:33 2023
     Host name              : cn040                                   

 Title lines from ".mol" input file:
     blah                                                                    
     blah                                                                    

 Print level on unit LUPRI =   2 is   0
 Print level on unit LUW4  =   2 is   5

@    Restricted, closed shell Hartree-Fock calculation.

@    Time-dependent Hartree-Fock calculation (random phase approximation).
 Fock matrices are calculated directly and in parallel without use of integrals on disk.

 Initial molecular orbitals are obtained according to
 ".MOSTART EHT   " input option

     Wave function specification
     ============================
@    Wave function type        --- HF ---
@    Number of closed shell electrons          18
@    Number of electrons in active shells       0
@    Total charge of the molecule               0

@    Spin multiplicity and 2 M_S                1         0
@    Total number of symmetries                 8 (point group: D2h)
@    Reference state symmetry                   1 (irrep name : Ag )

     Orbital specifications
     ======================
@    Abelian symmetry species          All |    1    2    3    4    5    6    7    8
@                                          |  Ag   B3u  B2u  B1g  B1u  B2g  B3g  Au 
                                       --- |  ---  ---  ---  ---  ---  ---  ---  ---
@    Total number of orbitals           64 |   15    7    7    3   15    7    7    3
@    Number of basis functions          64 |   15    7    7    3   15    7    7    3

      ** Automatic occupation of RHF orbitals **

      -- Initial occupation of symmetries is determined from extended Huckel guess.           
      -- Initial occupation of symmetries is :
@    Occupied SCF orbitals               9 |    3    1    1    0    2    1    1    0

     Maximum number of Fock   iterations      0
     Maximum number of DIIS   iterations     60
     Maximum number of QC-SCF iterations     60
     Threshold for SCF convergence     1.00D-05


 ***********************************************
 ***** DIIS acceleration of SCF iterations *****
 ***********************************************

 C1-DIIS algorithm; max error vectors =    8

 Automatic occupation of symmetries with  18 electrons.

 Iter     Total energy    Error norm  Delta(E)    SCF occupation
 -----------------------------------------------------------------------------
   1  Screening settings (-IFTHRS, JTDIIS, DIFDEN, times)   -6    1    T  5.60D-02  5.60D-02
@  1  -198.589315307       1.68D+00  -1.99D+02     3   1   1   0   2   1   1   0
      Virial theorem: -V/T =      2.002524
@    MULPOP   F_b _1  0.00; F_b _2  0.00; 
   1  Level shift: doubly occupied orbital energies shifted by -2.00D-01
 -----------------------------------------------------------------------------
   2  Screening settings (-IFTHRS, JTDIIS, DIFDEN, times)   -6    2    T  3.33D-02  3.30D-02
@  2  -198.692823832       3.51D-01  -1.04D-01     3   1   1   0   2   1   1   0
      Virial theorem: -V/T =      2.000452
@    MULPOP   F_b _1 -0.00; F_b _2 -0.00; 
   2  Level shift: doubly occupied orbital energies shifted by -5.00D-02
 -----------------------------------------------------------------------------
   3  Screening settings (-IFTHRS, JTDIIS, DIFDEN, times)  -10    3    F  3.33D-02  3.30D-02
@  3  -198.698930081       8.53D-02  -6.11D-03     3   1   1   0   2   1   1   0
      Virial theorem: -V/T =      2.001901
@    MULPOP   F_b _1 -0.00; F_b _2 -0.00; 
   3  Level shift: doubly occupied orbital energies shifted by -1.25D-02
 -----------------------------------------------------------------------------
   4  Screening settings (-IFTHRS, JTDIIS, DIFDEN, times)  -10    4    T  3.32D-02  3.40D-02
@  4  -198.699604753       2.50D-02  -6.75D-04     3   1   1   0   2   1   1   0
      Virial theorem: -V/T =      2.001312
@    MULPOP   F_b _1  0.00; F_b _2  0.00; 
 -----------------------------------------------------------------------------
   5  Screening settings (-IFTHRS, JTDIIS, DIFDEN, times)  -10    5    T  3.31D-02  3.30D-02
@  5  -198.699644690       4.90D-03  -3.99D-05     3   1   1   0   2   1   1   0
      Virial theorem: -V/T =      2.001535
@    MULPOP   F_b _1  0.00; F_b _2  0.00; 
 -----------------------------------------------------------------------------
   6  Screening settings (-IFTHRS, JTDIIS, DIFDEN, times)  -10    6    T  3.37D-02  3.40D-02
@  6  -198.699646256       4.09D-04  -1.57D-06     3   1   1   0   2   1   1   0
      Virial theorem: -V/T =      2.001494
@    MULPOP   F_b _1 -0.00; F_b _2 -0.00; 
 -----------------------------------------------------------------------------
   7  Screening settings (-IFTHRS, JTDIIS, DIFDEN, times)  -10    7    T  3.30D-02  3.30D-02
@  7  -198.699646274       4.66D-05  -1.75D-08     3   1   1   0   2   1   1   0
      Virial theorem: -V/T =      2.001494
@    MULPOP   F_b _1  0.00; F_b _2  0.00; 
 -----------------------------------------------------------------------------
   8  Screening settings (-IFTHRS, JTDIIS, DIFDEN, times)  -10    8    T  3.28D-02  3.30D-02
@  8  -198.699646274       4.62D-06  -3.77D-11     3   1   1   0   2   1   1   0

@ *** DIIS converged in   8 iterations !
@     Converged SCF energy, gradient:   -198.699646273625    4.62D-06
    - total time used in SIRFCK :              0.00 seconds


 *** SCF orbital energy analysis ***

 Only the 20 lowest virtual orbital energies printed in each symmetry.

 Number of electrons :   18
 Orbital occupations :    3    1    1    0    2    1    1    0

 Sym       Hartree-Fock orbital energies

1 Ag    -26.44669377    -1.77501186    -0.75682154     0.03756522     0.07819523
          0.26749240     0.34565101     0.39658474     0.76112325     1.44179915
          1.46258186     2.15721857     2.66858066     4.92019539     4.92831409

2 B3u    -0.81367787     0.05076498     0.28351893     0.53257893     1.42760132
          1.60578208     5.02809200

3 B2u    -0.81367787     0.05076498     0.28351893     0.53257893     1.42760132
          1.60578208     5.02809200

4 B1g     0.39658474     1.44179915     4.92019539

5 B1u   -26.44645177    -1.50735041     0.02974909     0.06571688     0.12942934
          0.29792277     0.52307082     0.53026690     0.72589893     1.68314293
          1.74933529     2.17277657     4.09706340     4.99086307     5.20175413

6 B2g    -0.66926289     0.06915751     0.30254242     0.66715961     1.81435488
          2.12434318     5.03570942

7 B3g    -0.66926289     0.06915751     0.30254242     0.66715961     1.81435488
          2.12434318     5.03570942

8 Au      0.53026690     1.68314293     4.99086307

    E(LUMO) :     0.02974909 au (symmetry 5)
  - E(HOMO) :    -0.66926289 au (symmetry 7)
  ------------------------------------------
    gap     :     0.69901198 au

 --- Writing SIRIFC interface file

 CPU and wall time for SCF :       0.296       0.297


                       .-----------------------------------.
                       | --- Final results from SIRIUS --- |
                       `-----------------------------------'


@    Spin multiplicity:           1
@    Spatial symmetry:            1 ( irrep  Ag  in D2h )
@    Total charge of molecule:    0

@    Final HF energy:            -198.699646273625                 
@    Nuclear repulsion:            30.357999520269
@    Electronic energy:          -229.057645793893

@    Final gradient norm:           0.000004623778

 
     Date and time (Linux)  : Wed Jan 11 14:16:33 2023
     Host name              : cn040                                   

File label for MO orbitals:  11Jan23   FOCKDIIS

 (Only coefficients > 0.0100 are printed.)

 Molecular orbitals for symmetry species 1  (Ag )
 ------------------------------------------------

    Orbital         1        2        3        4        5        6        7
   1 F_b :1s     0.7075  -0.0032   0.0099   0.0016   0.0033   0.0093  -0.0029
   2 F_b :1s     0.0014   0.6620   0.1841   0.0546   0.0521   0.1794   0.0803
   3 F_b :1s    -0.0026  -0.0104   0.0065   0.0401   0.0104  -0.0106   0.1312
   4 F_b :1s     0.0006   0.0103   0.0233   0.3137   0.3385  -1.4732  -0.4359
   5 F_b :1s     0.0001  -0.0051   0.0052  -0.8040  -0.0697   0.6855   0.0818
   6 F_b :2pz   -0.0012  -0.0924   0.6387   0.0349   0.0059   0.0869  -0.0890
   7 F_b :2pz    0.0008   0.0073  -0.0050  -0.0160   0.0040   0.1415  -0.0989
   8 F_b :2pz   -0.0015   0.0323  -0.0064   0.2311   0.0727  -1.5215   0.5549
   9 F_b :2pz    0.0002  -0.0036   0.0025  -0.8936   1.9025   0.0741  -0.8367
  10 F_b :3d0   -0.0000   0.0075  -0.0171  -0.0003  -0.0007   0.0043   0.0232
  12 F_b :3d0   -0.0003   0.0115  -0.0281   0.0024   0.0139  -0.0163  -0.0363
  14 F_b :3d0    0.0011  -0.0213   0.0155  -0.0896  -0.0929   0.6231   0.4266

    Orbital         8        9       10       11       12       13
   1 F_b :1s     0.0000   0.0515   0.0000  -0.0310  -0.1376  -0.5907
   2 F_b :1s     0.0000  -0.0661   0.0000  -0.1306  -0.5231  -2.6085
   3 F_b :1s    -0.0000  -1.4634  -0.0000   0.2665   1.2694   3.7946
   4 F_b :1s    -0.0000  -0.2776  -0.0000  -0.1664  -0.4616  -0.4495
   5 F_b :1s     0.0000   0.3964   0.0000   0.0169   0.0829  -0.0751
   6 F_b :2pz   -0.0000  -0.0618  -0.0000   0.4474  -0.9667   0.2131
   7 F_b :2pz    0.0000   0.2266   0.0000  -0.7641   1.0590  -0.1617
   8 F_b :2pz    0.0000  -2.4665  -0.0000   0.3025   0.0563   1.1756
   9 F_b :2pz   -0.0000   0.0682   0.0000  -0.3341  -0.0071  -0.1288
  10 F_b :3d0   -0.0000   0.0022   0.0000   0.0068  -0.0301   0.0897
  11 F_b :3d2+  -0.0246  -0.0000  -0.0059  -0.0000   0.0000  -0.0000
  12 F_b :3d0    0.0000  -0.0138  -0.0000  -0.6667  -0.4756   0.0659
  13 F_b :3d2+   0.0650   0.0000   0.7792   0.0000  -0.0000   0.0000
  14 F_b :3d0    0.0000   1.8642  -0.0000   0.2852  -0.1417  -0.8842
  15 F_b :3d2+  -0.5815  -0.0000  -0.3320  -0.0000   0.0000  -0.0000

 Molecular orbitals for symmetry species 2  (B3u)
 ------------------------------------------------

    Orbital         1        2        3        4        5        6        7
   1 F_b :2px    0.6829  -0.0457  -0.1883   0.0939  -0.1598  -0.9553   0.0327
   2 F_b :2px   -0.0242   0.0153  -0.1506   0.1480   0.0916   1.3453   0.0120
   3 F_b :2px    0.0186  -0.1189   0.7997   0.0793   0.0925  -0.3848  -0.0557
   4 F_b :2px   -0.0000   0.5662  -0.3225  -0.0381  -0.0336   0.1076   0.0195
   5 F_b :3d1+  -0.0075   0.0000   0.0079   0.0257  -0.0177  -0.0082  -0.8678
   6 F_b :3d1+  -0.0115   0.0047  -0.0197  -0.0641  -0.6919   0.1202   0.5269
   7 F_b :3d1+   0.0054  -0.0146   0.1500   0.8570   0.4453   0.0520  -0.2105

 Molecular orbitals for symmetry species 3  (B2u)
 ------------------------------------------------

    Orbital         1        2        3        4        5        6        7
   1 F_b :2py    0.6829  -0.0457  -0.1883   0.0939  -0.1598  -0.9553   0.0327
   2 F_b :2py   -0.0242   0.0153  -0.1506   0.1480   0.0916   1.3453   0.0120
   3 F_b :2py    0.0186  -0.1189   0.7997   0.0793   0.0925  -0.3848  -0.0557
   4 F_b :2py   -0.0000   0.5662  -0.3225  -0.0381  -0.0336   0.1076   0.0195
   5 F_b :3d1-  -0.0075   0.0000   0.0079   0.0257  -0.0177  -0.0082  -0.8678
   6 F_b :3d1-  -0.0115   0.0047  -0.0197  -0.0641  -0.6919   0.1202   0.5269
   7 F_b :3d1-   0.0054  -0.0146   0.1500   0.8570   0.4453   0.0520  -0.2105

 Molecular orbitals for symmetry species 4  (B1g)
 ------------------------------------------------

    Orbital         1        2        3
   1 F_b :3d2-  -0.0246  -0.0059   0.8443
   2 F_b :3d2-   0.0650   0.7792  -0.4918
   3 F_b :3d2-  -0.5815  -0.3320   0.1401

 Molecular orbitals for symmetry species 5  (B1u)
 ------------------------------------------------

    Orbital         1        2        3        4        5        6        7
   1 F_b :1s     0.7079   0.0010   0.0031  -0.0044  -0.0041   0.0103  -0.0039
   2 F_b :1s     0.0028   0.7267   0.0954  -0.2079  -0.0912   0.0403   0.1257
   3 F_b :1s    -0.0062   0.0254   0.0316  -0.1134  -0.0037  -0.1726   0.4175
   4 F_b :1s    -0.0012  -0.0176   0.9690   0.5531  -3.5463  10.6865  -3.6158
   5 F_b :1s    -0.0000  -0.0524   8.5123  10.7096 -21.1060  18.5848   1.7594
   6 F_b :2pz   -0.0010   0.0904  -0.1971   0.5446   0.3679   0.3302   0.0061
   7 F_b :2pz    0.0046  -0.0404  -0.0459   0.0928   0.1265  -0.1424   0.3594
   8 F_b :2pz    0.0003   0.0222  -0.6490  -0.3337   2.4367  -6.3506   1.2973
   9 F_b :2pz    0.0000   0.0080  -2.1444  -2.2394   3.7140  -2.8754  -0.4007
  10 F_b :3d0   -0.0002  -0.0045  -0.0026   0.0093   0.0044   0.0038   0.0244
  12 F_b :3d0   -0.0017   0.0095  -0.0077   0.0012   0.0124   0.0252  -0.2092
  14 F_b :3d0   -0.0002  -0.0043   0.0641   0.0982  -0.2444   0.6934   0.5815

    Orbital         8        9       10       11       12
   1 F_b :1s     0.0000   0.0094  -0.0000   0.0299  -0.1031
   2 F_b :1s     0.0000  -0.0610  -0.0000   0.4083  -0.6216
   3 F_b :1s    -0.0000  -0.4405   0.0000   0.4538   0.3341
   4 F_b :1s     0.0000  19.3321   0.0000   0.7160 -14.3364
   5 F_b :1s     0.0000  12.5647   0.0000  -2.3056  -5.8210
   6 F_b :2pz   -0.0000  -0.2841   0.0000  -0.1603  -0.9320
   7 F_b :2pz   -0.0000  -0.6296  -0.0000  -1.4068   3.1965
   8 F_b :2pz   -0.0000  -8.7198  -0.0000   0.0758   5.7111
   9 F_b :2pz   -0.0000  -1.8479  -0.0000   0.4082   0.8209
  10 F_b :3d0   -0.0000   0.0054  -0.0000  -0.0345   0.0422
  11 F_b :3d2+   0.0248  -0.0000  -0.0013  -0.0000  -0.0000
  12 F_b :3d0    0.0000   0.0237   0.0000   1.4493  -0.4234
  13 F_b :3d2+  -0.0907   0.0000   0.8996   0.0000   0.0000
  14 F_b :3d0    0.0000   1.8579   0.0000  -0.4555  -1.2097
  15 F_b :3d2+   1.2143  -0.0000  -0.5531  -0.0000  -0.0000

 Molecular orbitals for symmetry species 6  (B2g)
 ------------------------------------------------

    Orbital         1        2        3        4        5        6        7
   1 F_b :2px    0.7449  -0.0238  -0.1351   0.1630  -0.8496   0.4527   0.0030
   2 F_b :2px   -0.0036   0.0026  -0.0608   0.2480   1.4139  -1.0667   0.1548
   3 F_b :2px    0.0616  -0.4296   3.1977   4.6310   1.5662   1.1006  -0.8445
   4 F_b :2px   -0.0066   2.8490  -1.4051  -0.7206  -0.0513  -0.2388   0.1202
   5 F_b :3d1+   0.0003   0.0014  -0.0034  -0.0241   0.0028  -0.0198   0.8730
   6 F_b :3d1+  -0.0003  -0.0065   0.0507   0.1023   0.4981   1.2102  -0.8492
   7 F_b :3d1+  -0.0115   0.1228  -0.8410  -2.7207  -1.3118  -0.5999   0.5722

 Molecular orbitals for symmetry species 7  (B3g)
 ------------------------------------------------

    Orbital         1        2        3        4        5        6        7
   1 F_b :2py    0.7449  -0.0238  -0.1351   0.1630  -0.8496   0.4527   0.0030
   2 F_b :2py   -0.0036   0.0026  -0.0608   0.2480   1.4139  -1.0667   0.1548
   3 F_b :2py    0.0616  -0.4296   3.1977   4.6310   1.5662   1.1006  -0.8445
   4 F_b :2py   -0.0066   2.8490  -1.4051  -0.7206  -0.0513  -0.2388   0.1202
   5 F_b :3d1-   0.0003   0.0014  -0.0034  -0.0241   0.0028  -0.0198   0.8730
   6 F_b :3d1-  -0.0003  -0.0065   0.0507   0.1023   0.4981   1.2102  -0.8492
   7 F_b :3d1-  -0.0115   0.1228  -0.8410  -2.7207  -1.3118  -0.5999   0.5722

 Molecular orbitals for symmetry species 8  (Au )
 ------------------------------------------------

    Orbital         1        2        3
   1 F_b :3d2-   0.0248  -0.0013   0.8585
   2 F_b :3d2-  -0.0907   0.8996  -0.6055
   3 F_b :3d2-   1.2143  -0.5531   0.2640

  Total CPU  time used in SIRIUS :   0.30 seconds
  Total wall time used in SIRIUS :   0.31 seconds

 
     Date and time (Linux)  : Wed Jan 11 14:16:33 2023
     Host name              : cn040                                   


                     .---------------------------------------.
                     | End of Wave Function Section (SIRIUS) |
                     `---------------------------------------'



                 .------------------------------------------------.
                 | Starting in Dynamic Property Section (RESPONS) |
                 `------------------------------------------------'


 ----------------------------------------------------------------------------------------
  RESPONSE  -  an MCSCF, MC-srDFT, DFT, SOPPA and SOPPA-srDFT response property program
 ----------------------------------------------------------------------------------------


 -------- OUTPUT FROM RESPONSE INPUT PROCESSING --------




 Linear Response calculation
 ---------------------------

 Print level                                    : IPRLR  =   2
 Maximum number of iterations                   : MAXITL =  60
 Threshold for relative convergence             : THCLR  = 1.000D-03
 Maximum iterations in optimal orbital algorithm: MAXITO =   5

  9 B-frequencies  0.000000D+00  1.101744D-02  2.203487D-02  3.305231D-02  4.406975D-02
  5.508719D-02  6.610463D-02  7.712206D-02  8.813950D-02

    1 second order properties calculated with symmetry no.    2 and labels:

          XDIPLEN 

    1 second order properties calculated with symmetry no.    3 and labels:

          YDIPLEN 

    1 second order properties calculated with symmetry no.    5 and labels:

          ZDIPLEN 


   SCF energy         :     -198.699646273624722
 -- inactive part     :     -229.057645793893386
 -- nuclear repulsion :       30.357999520268653


                     ***************************************
                     *** RHF response calculation (TDHF) ***
                     ***************************************

 ----------------------------------------------------------------
 ----- Linear response calculation
 ----- Symmetry of excitation/property operator(s)    2  ( B3u)
 ----------------------------------------------------------------

 Number of excitations of this symmetry            0
 Number of response properties of this symmetry    1
 Number of C6/C8 properties of this symmetry       0


 Perturbation symmetry.     KSYMOP:           2
 Perturbation spin symmetry.TRPLET:           F
 Orbital variables.         KZWOPT:          61
 Configuration variables.   KZCONF:           0
 Total number of variables. KZVAR :          61


 RSPLR -- linear response calculation for symmetry 2  ( B3u)
 RSPLR -- operator label : XDIPLEN 
 RSPLR -- operator spin  :   0
 RSPLR -- frequencies    :     0.000000  0.011017  0.022035  0.033052  0.044070
                               0.055087  0.066105  0.077122  0.088139



 ---  SOLVING SETS OF LINEAR EQUATIONS FOR LINEAR RESPONSE PROPERTIES ---

 Operator symmetry = 2  ( B3u); triplet =   F

RSPORT:    2 out of    9 new trial vectors linear dependent

 ** RSPCTL MICROITERATION NUMBER    1

       No.  Residual tot.,    conf., and orb.    Bnorm      Frequency 
      ----------------------------------------------------------------
         1    6.47922D-01  0.00D+00  6.48D-01  1.52D+00    0.00000D+00
         2    6.47983D-01  0.00D+00  6.48D-01  1.52D+00    1.10174D-02
         3    6.48167D-01  0.00D+00  6.48D-01  1.52D+00    2.20349D-02
         4    6.48474D-01  0.00D+00  6.48D-01  1.52D+00    3.30523D-02
         5    6.48905D-01  0.00D+00  6.49D-01  1.52D+00    4.40697D-02
         6    6.49461D-01  0.00D+00  6.49D-01  1.53D+00    5.50872D-02
         7    6.50144D-01  0.00D+00  6.50D-01  1.53D+00    6.61046D-02
         8    6.50955D-01  0.00D+00  6.51D-01  1.54D+00    7.71221D-02
         9    6.51897D-01  0.00D+00  6.52D-01  1.54D+00    8.81395D-02

 ** RSPCTL MICROITERATION NUMBER    2

       No.  Residual tot.,    conf., and orb.    Bnorm      Frequency 
      ----------------------------------------------------------------
         1    3.33607D-02  0.00D+00  3.34D-02  1.55D+00    0.00000D+00
         2    3.34471D-02  0.00D+00  3.34D-02  1.55D+00    1.10174D-02
         3    3.37114D-02  0.00D+00  3.37D-02  1.56D+00    2.20349D-02
         4    3.41690D-02  0.00D+00  3.42D-02  1.56D+00    3.30523D-02
         5    3.48480D-02  0.00D+00  3.48D-02  1.56D+00    4.40697D-02
         6    3.57933D-02  0.00D+00  3.58D-02  1.57D+00    5.50872D-02
         7    3.70734D-02  0.00D+00  3.71D-02  1.57D+00    6.61046D-02
         8    3.87929D-02  0.00D+00  3.88D-02  1.58D+00    7.71221D-02
         9    4.11139D-02  0.00D+00  4.11D-02  1.59D+00    8.81395D-02

 ** RSPCTL MICROITERATION NUMBER    3

       No.  Residual tot.,    conf., and orb.    Bnorm      Frequency 
      ----------------------------------------------------------------
         1    1.75278D-03  0.00D+00  1.75D-03  1.55D+00    0.00000D+00
         2    1.76320D-03  0.00D+00  1.76D-03  1.55D+00    1.10174D-02
         3    1.79498D-03  0.00D+00  1.79D-03  1.56D+00    2.20349D-02
         4    1.84971D-03  0.00D+00  1.85D-03  1.56D+00    3.30523D-02
         5    1.93034D-03  0.00D+00  1.93D-03  1.56D+00    4.40697D-02
         6    2.04154D-03  0.00D+00  2.04D-03  1.57D+00    5.50872D-02
         7    2.19051D-03  0.00D+00  2.19D-03  1.57D+00    6.61046D-02
         8    2.38831D-03  0.00D+00  2.39D-03  1.58D+00    7.71221D-02
         9    2.65234D-03  0.00D+00  2.65D-03  1.59D+00    8.81395D-02

 ** RSPCTL MICROITERATION NUMBER    4

       No.  Residual tot.,    conf., and orb.    Bnorm      Frequency 
      ----------------------------------------------------------------
         1    8.53443D-05  0.00D+00  8.53D-05  1.55D+00    0.00000D+00
         2    8.61686D-05  0.00D+00  8.62D-05  1.55D+00    1.10174D-02
         3    8.86620D-05  0.00D+00  8.87D-05  1.56D+00    2.20349D-02
         4    9.28912D-05  0.00D+00  9.29D-05  1.56D+00    3.30523D-02
         5    9.89882D-05  0.00D+00  9.90D-05  1.56D+00    4.40697D-02
         6    1.07183D-04  0.00D+00  1.07D-04  1.57D+00    5.50872D-02
         7    1.17855D-04  0.00D+00  1.18D-04  1.57D+00    6.61046D-02
         8    1.31619D-04  0.00D+00  1.32D-04  1.58D+00    7.71221D-02
         9    1.49476D-04  0.00D+00  1.49D-04  1.59D+00    8.81395D-02

 *** THE REQUESTED    9 SOLUTION VECTORS CONVERGED

 Convergence of RSP solution vectors, threshold = 1.00D-03
 ---------------------------------------------------------------
 (dimension of paired reduced space:   68)
 RSP solution vector no.    1; norm of residual   5.49D-05
 RSP solution vector no.    2; norm of residual   5.54D-05
 RSP solution vector no.    3; norm of residual   5.70D-05
 RSP solution vector no.    4; norm of residual   5.96D-05
 RSP solution vector no.    5; norm of residual   6.34D-05
 RSP solution vector no.    6; norm of residual   6.84D-05
 RSP solution vector no.    7; norm of residual   7.50D-05
 RSP solution vector no.    8; norm of residual   8.34D-05
 RSP solution vector no.    9; norm of residual   9.42D-05

 *** RSPCTL MICROITERATIONS CONVERGED


           Final output of second order properties from linear response
           ------------------------------------------------------------


@ Spin symmetry of operators: singlet

 Note that minus the linear response function: - << A; B >>(omega) is printed.
 The results are of quadratic accuracy using Sellers formula.

@ FREQUENCY INDEPENDENT SECOND ORDER PROPERTIES

@ -<< XDIPLEN  ; XDIPLEN  >> =  5.539916934949E+00

@ FREQUENCY DEPENDENT SECOND ORDER PROPERTIES WITH FREQUENCY :

@    a.u.:  1.1017437D-02
@    cm-1:  2.4180480D+03
@    eV  :  2.9979972D-01
@  kJ/mol:  2.8926278D+01
@    nm  :  4.1355672D+03

@ -<< XDIPLEN  ; XDIPLEN  >> =  5.540641730243E+00

@ FREQUENCY DEPENDENT SECOND ORDER PROPERTIES WITH FREQUENCY :

@    a.u.:  2.2034875D-02
@    cm-1:  4.8360960D+03
@    eV  :  5.9959945D-01
@  kJ/mol:  5.7852555D+01
@    nm  :  2.0677836D+03

@ -<< XDIPLEN  ; XDIPLEN  >> =  5.542818778218E+00

@ FREQUENCY DEPENDENT SECOND ORDER PROPERTIES WITH FREQUENCY :

@    a.u.:  3.3052313D-02
@    cm-1:  7.2541440D+03
@    eV  :  8.9939917D-01
@  kJ/mol:  8.6778833D+01
@    nm  :  1.3785224D+03

@ -<< XDIPLEN  ; XDIPLEN  >> =  5.546456197207E+00

@ FREQUENCY DEPENDENT SECOND ORDER PROPERTIES WITH FREQUENCY :

@    a.u.:  4.4069750D-02
@    cm-1:  9.6721920D+03
@    eV  :  1.1991989D+00
@  kJ/mol:  1.1570511D+02
@    nm  :  1.0338918D+03

@ -<< XDIPLEN  ; XDIPLEN  >> =  5.551567987429E+00

@ FREQUENCY DEPENDENT SECOND ORDER PROPERTIES WITH FREQUENCY :

@    a.u.:  5.5087187D-02
@    cm-1:  1.2090240D+04
@    eV  :  1.4989986D+00
@  kJ/mol:  1.4463139D+02
@    nm  :  8.2711344D+02

@ -<< XDIPLEN  ; XDIPLEN  >> =  5.558174850846E+00

@ FREQUENCY DEPENDENT SECOND ORDER PROPERTIES WITH FREQUENCY :

@    a.u.:  6.6104625D-02
@    cm-1:  1.4508288D+04
@    eV  :  1.7987983D+00
@  kJ/mol:  1.7355767D+02
@    nm  :  6.8926120D+02

@ -<< XDIPLEN  ; XDIPLEN  >> =  5.566305620932E+00

@ FREQUENCY DEPENDENT SECOND ORDER PROPERTIES WITH FREQUENCY :

@    a.u.:  7.7122062D-02
@    cm-1:  1.6926336D+04
@    eV  :  2.0985981D+00
@  kJ/mol:  2.0248394D+02
@    nm  :  5.9079531D+02

@ -<< XDIPLEN  ; XDIPLEN  >> =  5.575999739561E+00

@ FREQUENCY DEPENDENT SECOND ORDER PROPERTIES WITH FREQUENCY :

@    a.u.:  8.8139500D-02
@    cm-1:  1.9344384D+04
@    eV  :  2.3983978D+00
@  kJ/mol:  2.3141022D+02
@    nm  :  5.1694590D+02

@ -<< XDIPLEN  ; XDIPLEN  >> =  5.587311692812E+00


 Time used in linear response calculation is      0.35 CPU seconds for symmetry 2
 ----------------------------------------------------------------
 ----- Linear response calculation
 ----- Symmetry of excitation/property operator(s)    3  ( B2u)
 ----------------------------------------------------------------

 Number of excitations of this symmetry            0
 Number of response properties of this symmetry    1
 Number of C6/C8 properties of this symmetry       0


 Perturbation symmetry.     KSYMOP:           3
 Perturbation spin symmetry.TRPLET:           F
 Orbital variables.         KZWOPT:          61
 Configuration variables.   KZCONF:           0
 Total number of variables. KZVAR :          61


 RSPLR -- linear response calculation for symmetry 3  ( B2u)
 RSPLR -- operator label : YDIPLEN 
 RSPLR -- operator spin  :   0
 RSPLR -- frequencies    :     0.000000  0.011017  0.022035  0.033052  0.044070
                               0.055087  0.066105  0.077122  0.088139



 ---  SOLVING SETS OF LINEAR EQUATIONS FOR LINEAR RESPONSE PROPERTIES ---

 Operator symmetry = 3  ( B2u); triplet =   F

RSPORT:    2 out of    9 new trial vectors linear dependent

 ** RSPCTL MICROITERATION NUMBER    1

       No.  Residual tot.,    conf., and orb.    Bnorm      Frequency 
      ----------------------------------------------------------------
         1    6.41380D-01  0.00D+00  6.41D-01  1.52D+00    0.00000D+00
         2    6.41441D-01  0.00D+00  6.41D-01  1.52D+00    1.10174D-02
         3    6.41626D-01  0.00D+00  6.42D-01  1.52D+00    2.20349D-02
         4    6.41933D-01  0.00D+00  6.42D-01  1.52D+00    3.30523D-02
         5    6.42366D-01  0.00D+00  6.42D-01  1.52D+00    4.40697D-02
         6    6.42923D-01  0.00D+00  6.43D-01  1.53D+00    5.50872D-02
         7    6.43608D-01  0.00D+00  6.44D-01  1.53D+00    6.61046D-02
         8    6.44422D-01  0.00D+00  6.44D-01  1.54D+00    7.71221D-02
         9    6.45367D-01  0.00D+00  6.45D-01  1.54D+00    8.81395D-02

 ** RSPCTL MICROITERATION NUMBER    2

       No.  Residual tot.,    conf., and orb.    Bnorm      Frequency 
      ----------------------------------------------------------------
         1    3.24966D-02  0.00D+00  3.25D-02  1.55D+00    0.00000D+00
         2    3.25716D-02  0.00D+00  3.26D-02  1.55D+00    1.10174D-02
         3    3.28009D-02  0.00D+00  3.28D-02  1.56D+00    2.20349D-02
         4    3.31990D-02  0.00D+00  3.32D-02  1.56D+00    3.30523D-02
         5    3.37921D-02  0.00D+00  3.38D-02  1.56D+00    4.40697D-02
         6    3.46222D-02  0.00D+00  3.46D-02  1.57D+00    5.50872D-02
         7    3.57542D-02  0.00D+00  3.58D-02  1.57D+00    6.61046D-02
         8    3.72884D-02  0.00D+00  3.73D-02  1.58D+00    7.71221D-02
         9    3.93818D-02  0.00D+00  3.94D-02  1.59D+00    8.81395D-02

 ** RSPCTL MICROITERATION NUMBER    3

       No.  Residual tot.,    conf., and orb.    Bnorm      Frequency 
      ----------------------------------------------------------------
         1    1.67897D-03  0.00D+00  1.68D-03  1.55D+00    0.00000D+00
         2    1.68640D-03  0.00D+00  1.69D-03  1.55D+00    1.10174D-02
         3    1.70923D-03  0.00D+00  1.71D-03  1.56D+00    2.20349D-02
         4    1.74922D-03  0.00D+00  1.75D-03  1.56D+00    3.30523D-02
         5    1.80954D-03  0.00D+00  1.81D-03  1.56D+00    4.40697D-02
         6    1.89527D-03  0.00D+00  1.90D-03  1.57D+00    5.50872D-02
         7    2.01426D-03  0.00D+00  2.01D-03  1.57D+00    6.61046D-02
         8    2.17851D-03  0.00D+00  2.18D-03  1.58D+00    7.71221D-02
         9    2.40686D-03  0.00D+00  2.41D-03  1.59D+00    8.81395D-02

 ** RSPCTL MICROITERATION NUMBER    4

       No.  Residual tot.,    conf., and orb.    Bnorm      Frequency 
      ----------------------------------------------------------------
         1    7.81428D-05  0.00D+00  7.81D-05  1.55D+00    0.00000D+00
         2    7.88971D-05  0.00D+00  7.89D-05  1.55D+00    1.10174D-02
         3    8.12181D-05  0.00D+00  8.12D-05  1.56D+00    2.20349D-02
         4    8.52865D-05  0.00D+00  8.53D-05  1.56D+00    3.30523D-02
         5    9.14236D-05  0.00D+00  9.14D-05  1.56D+00    4.40697D-02
         6    1.00128D-04  0.00D+00  1.00D-04  1.57D+00    5.50872D-02
         7    1.12146D-04  0.00D+00  1.12D-04  1.57D+00    6.61046D-02
         8    1.28594D-04  0.00D+00  1.29D-04  1.58D+00    7.71221D-02
         9    1.51193D-04  0.00D+00  1.51D-04  1.59D+00    8.81395D-02

 *** THE REQUESTED    9 SOLUTION VECTORS CONVERGED

 Convergence of RSP solution vectors, threshold = 1.00D-03
 ---------------------------------------------------------------
 (dimension of paired reduced space:   68)
 RSP solution vector no.    1; norm of residual   5.03D-05
 RSP solution vector no.    2; norm of residual   5.08D-05
 RSP solution vector no.    3; norm of residual   5.22D-05
 RSP solution vector no.    4; norm of residual   5.47D-05
 RSP solution vector no.    5; norm of residual   5.85D-05
 RSP solution vector no.    6; norm of residual   6.39D-05
 RSP solution vector no.    7; norm of residual   7.13D-05
 RSP solution vector no.    8; norm of residual   8.15D-05
 RSP solution vector no.    9; norm of residual   9.53D-05

 *** RSPCTL MICROITERATIONS CONVERGED


           Final output of second order properties from linear response
           ------------------------------------------------------------


@ Spin symmetry of operators: singlet

 Note that minus the linear response function: - << A; B >>(omega) is printed.
 The results are of quadratic accuracy using Sellers formula.

@ FREQUENCY INDEPENDENT SECOND ORDER PROPERTIES

@ -<< YDIPLEN  ; YDIPLEN  >> =  5.539916935064E+00

@ FREQUENCY DEPENDENT SECOND ORDER PROPERTIES WITH FREQUENCY :

@    a.u.:  1.1017437D-02
@    cm-1:  2.4180480D+03
@    eV  :  2.9979972D-01
@  kJ/mol:  2.8926278D+01
@    nm  :  4.1355672D+03

@ -<< YDIPLEN  ; YDIPLEN  >> =  5.540641730358E+00

@ FREQUENCY DEPENDENT SECOND ORDER PROPERTIES WITH FREQUENCY :

@    a.u.:  2.2034875D-02
@    cm-1:  4.8360960D+03
@    eV  :  5.9959945D-01
@  kJ/mol:  5.7852555D+01
@    nm  :  2.0677836D+03

@ -<< YDIPLEN  ; YDIPLEN  >> =  5.542818778333E+00

@ FREQUENCY DEPENDENT SECOND ORDER PROPERTIES WITH FREQUENCY :

@    a.u.:  3.3052313D-02
@    cm-1:  7.2541440D+03
@    eV  :  8.9939917D-01
@  kJ/mol:  8.6778833D+01
@    nm  :  1.3785224D+03

@ -<< YDIPLEN  ; YDIPLEN  >> =  5.546456197318E+00

@ FREQUENCY DEPENDENT SECOND ORDER PROPERTIES WITH FREQUENCY :

@    a.u.:  4.4069750D-02
@    cm-1:  9.6721920D+03
@    eV  :  1.1991989D+00
@  kJ/mol:  1.1570511D+02
@    nm  :  1.0338918D+03

@ -<< YDIPLEN  ; YDIPLEN  >> =  5.551567987530E+00

@ FREQUENCY DEPENDENT SECOND ORDER PROPERTIES WITH FREQUENCY :

@    a.u.:  5.5087187D-02
@    cm-1:  1.2090240D+04
@    eV  :  1.4989986D+00
@  kJ/mol:  1.4463139D+02
@    nm  :  8.2711344D+02

@ -<< YDIPLEN  ; YDIPLEN  >> =  5.558174850921E+00

@ FREQUENCY DEPENDENT SECOND ORDER PROPERTIES WITH FREQUENCY :

@    a.u.:  6.6104625D-02
@    cm-1:  1.4508288D+04
@    eV  :  1.7987983D+00
@  kJ/mol:  1.7355767D+02
@    nm  :  6.8926120D+02

@ -<< YDIPLEN  ; YDIPLEN  >> =  5.566305620950E+00

@ FREQUENCY DEPENDENT SECOND ORDER PROPERTIES WITH FREQUENCY :

@    a.u.:  7.7122062D-02
@    cm-1:  1.6926336D+04
@    eV  :  2.0985981D+00
@  kJ/mol:  2.0248394D+02
@    nm  :  5.9079531D+02

@ -<< YDIPLEN  ; YDIPLEN  >> =  5.575999739462E+00

@ FREQUENCY DEPENDENT SECOND ORDER PROPERTIES WITH FREQUENCY :

@    a.u.:  8.8139500D-02
@    cm-1:  1.9344384D+04
@    eV  :  2.3983978D+00
@  kJ/mol:  2.3141022D+02
@    nm  :  5.1694590D+02

@ -<< YDIPLEN  ; YDIPLEN  >> =  5.587311692486E+00


 Time used in linear response calculation is      0.31 CPU seconds for symmetry 3
 ----------------------------------------------------------------
 ----- Linear response calculation
 ----- Symmetry of excitation/property operator(s)    5  ( B1u)
 ----------------------------------------------------------------

 Number of excitations of this symmetry            0
 Number of response properties of this symmetry    1
 Number of C6/C8 properties of this symmetry       0


 Perturbation symmetry.     KSYMOP:           5
 Perturbation spin symmetry.TRPLET:           F
 Orbital variables.         KZWOPT:          87
 Configuration variables.   KZCONF:           0
 Total number of variables. KZVAR :          87


 RSPLR -- linear response calculation for symmetry 5  ( B1u)
 RSPLR -- operator label : ZDIPLEN 
 RSPLR -- operator spin  :   0
 RSPLR -- frequencies    :     0.000000  0.011017  0.022035  0.033052  0.044070
                               0.055087  0.066105  0.077122  0.088139



 ---  SOLVING SETS OF LINEAR EQUATIONS FOR LINEAR RESPONSE PROPERTIES ---

 Operator symmetry = 5  ( B1u); triplet =   F

RSPORT:    2 out of    9 new trial vectors linear dependent

 ** RSPCTL MICROITERATION NUMBER    1

       No.  Residual tot.,    conf., and orb.    Bnorm      Frequency 
      ----------------------------------------------------------------
         1    3.37082D+00  0.00D+00  3.37D+00  2.44D+00    0.00000D+00
         2    3.37202D+00  0.00D+00  3.37D+00  2.44D+00    1.10174D-02
         3    3.37563D+00  0.00D+00  3.38D+00  2.45D+00    2.20349D-02
         4    3.38165D+00  0.00D+00  3.38D+00  2.45D+00    3.30523D-02
         5    3.39012D+00  0.00D+00  3.39D+00  2.46D+00    4.40697D-02
         6    3.40108D+00  0.00D+00  3.40D+00  2.48D+00    5.50872D-02
         7    3.41457D+00  0.00D+00  3.41D+00  2.49D+00    6.61046D-02
         8    3.43065D+00  0.00D+00  3.43D+00  2.51D+00    7.71221D-02
         9    3.44940D+00  0.00D+00  3.45D+00  2.54D+00    8.81395D-02

 ** RSPCTL MICROITERATION NUMBER    2

       No.  Residual tot.,    conf., and orb.    Bnorm      Frequency 
      ----------------------------------------------------------------
         1    6.26587D-01  0.00D+00  6.27D-01  3.38D+00    0.00000D+00
         2    6.26966D-01  0.00D+00  6.27D-01  3.38D+00    1.10174D-02
         3    6.28107D-01  0.00D+00  6.28D-01  3.39D+00    2.20349D-02
         4    6.30018D-01  0.00D+00  6.30D-01  3.40D+00    3.30523D-02
         5    6.32710D-01  0.00D+00  6.33D-01  3.42D+00    4.40697D-02
         6    6.36202D-01  0.00D+00  6.36D-01  3.44D+00    5.50872D-02
         7    6.40519D-01  0.00D+00  6.41D-01  3.48D+00    6.61046D-02
         8    6.45690D-01  0.00D+00  6.46D-01  3.51D+00    7.71221D-02
         9    6.51752D-01  0.00D+00  6.52D-01  3.55D+00    8.81395D-02

 ** RSPCTL MICROITERATION NUMBER    3

       No.  Residual tot.,    conf., and orb.    Bnorm      Frequency 
      ----------------------------------------------------------------
         1    4.80032D-02  0.00D+00  4.80D-02  3.41D+00    0.00000D+00
         2    4.80421D-02  0.00D+00  4.80D-02  3.41D+00    1.10174D-02
         3    4.81590D-02  0.00D+00  4.82D-02  3.42D+00    2.20349D-02
         4    4.83547D-02  0.00D+00  4.84D-02  3.44D+00    3.30523D-02
         5    4.86307D-02  0.00D+00  4.86D-02  3.46D+00    4.40697D-02
         6    4.89889D-02  0.00D+00  4.90D-02  3.48D+00    5.50872D-02
         7    4.94320D-02  0.00D+00  4.94D-02  3.51D+00    6.61046D-02
         8    4.99634D-02  0.00D+00  5.00D-02  3.55D+00    7.71221D-02
         9    5.05869D-02  0.00D+00  5.06D-02  3.59D+00    8.81395D-02

 ** RSPCTL MICROITERATION NUMBER    4

       No.  Residual tot.,    conf., and orb.    Bnorm      Frequency 
      ----------------------------------------------------------------
         1    4.80434D-03  0.00D+00  4.80D-03  3.41D+00    0.00000D+00
         2    4.81012D-03  0.00D+00  4.81D-03  3.41D+00    1.10174D-02
         3    4.82749D-03  0.00D+00  4.83D-03  3.42D+00    2.20349D-02
         4    4.85659D-03  0.00D+00  4.86D-03  3.44D+00    3.30523D-02
         5    4.89768D-03  0.00D+00  4.90D-03  3.46D+00    4.40697D-02
         6    4.95108D-03  0.00D+00  4.95D-03  3.48D+00    5.50872D-02
         7    5.01726D-03  0.00D+00  5.02D-03  3.51D+00    6.61046D-02
         8    5.09678D-03  0.00D+00  5.10D-03  3.55D+00    7.71221D-02
         9    5.19033D-03  0.00D+00  5.19D-03  3.59D+00    8.81395D-02
RSPORT:    1 out of    9 new trial vectors linear dependent

 ** RSPCTL MICROITERATION NUMBER    5

       No.  Residual tot.,    conf., and orb.    Bnorm      Frequency 
      ----------------------------------------------------------------
         1    2.40849D-04  0.00D+00  2.41D-04  3.41D+00    0.00000D+00
         2    2.41186D-04  0.00D+00  2.41D-04  3.41D+00    1.10174D-02
         3    2.42198D-04  0.00D+00  2.42D-04  3.42D+00    2.20349D-02
         4    2.43894D-04  0.00D+00  2.44D-04  3.44D+00    3.30523D-02
         5    2.46289D-04  0.00D+00  2.46D-04  3.46D+00    4.40697D-02
         6    2.49402D-04  0.00D+00  2.49D-04  3.48D+00    5.50872D-02
         7    2.53260D-04  0.00D+00  2.53D-04  3.51D+00    6.61046D-02
         8    2.57898D-04  0.00D+00  2.58D-04  3.55D+00    7.71221D-02
         9    2.63355D-04  0.00D+00  2.63D-04  3.59D+00    8.81395D-02

 *** THE REQUESTED    9 SOLUTION VECTORS CONVERGED

 Convergence of RSP solution vectors, threshold = 1.00D-03
 ---------------------------------------------------------------
 (dimension of paired reduced space:   84)
 RSP solution vector no.    1; norm of residual   7.06D-05
 RSP solution vector no.    2; norm of residual   7.06D-05
 RSP solution vector no.    3; norm of residual   7.08D-05
 RSP solution vector no.    4; norm of residual   7.10D-05
 RSP solution vector no.    5; norm of residual   7.13D-05
 RSP solution vector no.    6; norm of residual   7.17D-05
 RSP solution vector no.    7; norm of residual   7.21D-05
 RSP solution vector no.    8; norm of residual   7.27D-05
 RSP solution vector no.    9; norm of residual   7.33D-05

 *** RSPCTL MICROITERATIONS CONVERGED


           Final output of second order properties from linear response
           ------------------------------------------------------------


@ Spin symmetry of operators: singlet

 Note that minus the linear response function: - << A; B >>(omega) is printed.
 The results are of quadratic accuracy using Sellers formula.

@ FREQUENCY INDEPENDENT SECOND ORDER PROPERTIES

@ -<< ZDIPLEN  ; ZDIPLEN  >> =  1.459387639895E+01

@ FREQUENCY DEPENDENT SECOND ORDER PROPERTIES WITH FREQUENCY :

@    a.u.:  1.1017437D-02
@    cm-1:  2.4180480D+03
@    eV  :  2.9979972D-01
@  kJ/mol:  2.8926278D+01
@    nm  :  4.1355672D+03

@ -<< ZDIPLEN  ; ZDIPLEN  >> =  1.459996465634E+01

@ FREQUENCY DEPENDENT SECOND ORDER PROPERTIES WITH FREQUENCY :

@    a.u.:  2.2034875D-02
@    cm-1:  4.8360960D+03
@    eV  :  5.9959945D-01
@  kJ/mol:  5.7852555D+01
@    nm  :  2.0677836D+03

@ -<< ZDIPLEN  ; ZDIPLEN  >> =  1.461826743095E+01

@ FREQUENCY DEPENDENT SECOND ORDER PROPERTIES WITH FREQUENCY :

@    a.u.:  3.3052313D-02
@    cm-1:  7.2541440D+03
@    eV  :  8.9939917D-01
@  kJ/mol:  8.6778833D+01
@    nm  :  1.3785224D+03

@ -<< ZDIPLEN  ; ZDIPLEN  >> =  1.464889934963E+01

@ FREQUENCY DEPENDENT SECOND ORDER PROPERTIES WITH FREQUENCY :

@    a.u.:  4.4069750D-02
@    cm-1:  9.6721920D+03
@    eV  :  1.1991989D+00
@  kJ/mol:  1.1570511D+02
@    nm  :  1.0338918D+03

@ -<< ZDIPLEN  ; ZDIPLEN  >> =  1.469205354131E+01

@ FREQUENCY DEPENDENT SECOND ORDER PROPERTIES WITH FREQUENCY :

@    a.u.:  5.5087187D-02
@    cm-1:  1.2090240D+04
@    eV  :  1.4989986D+00
@  kJ/mol:  1.4463139D+02
@    nm  :  8.2711344D+02

@ -<< ZDIPLEN  ; ZDIPLEN  >> =  1.474800483122E+01

@ FREQUENCY DEPENDENT SECOND ORDER PROPERTIES WITH FREQUENCY :

@    a.u.:  6.6104625D-02
@    cm-1:  1.4508288D+04
@    eV  :  1.7987983D+00
@  kJ/mol:  1.7355767D+02
@    nm  :  6.8926120D+02

@ -<< ZDIPLEN  ; ZDIPLEN  >> =  1.481711435193E+01

@ FREQUENCY DEPENDENT SECOND ORDER PROPERTIES WITH FREQUENCY :

@    a.u.:  7.7122062D-02
@    cm-1:  1.6926336D+04
@    eV  :  2.0985981D+00
@  kJ/mol:  2.0248394D+02
@    nm  :  5.9079531D+02

@ -<< ZDIPLEN  ; ZDIPLEN  >> =  1.489983571915E+01

@ FREQUENCY DEPENDENT SECOND ORDER PROPERTIES WITH FREQUENCY :

@    a.u.:  8.8139500D-02
@    cm-1:  1.9344384D+04
@    eV  :  2.3983978D+00
@  kJ/mol:  2.3141022D+02
@    nm  :  5.1694590D+02

@ -<< ZDIPLEN  ; ZDIPLEN  >> =  1.499672297480E+01


 Time used in linear response calculation is      0.37 CPU seconds for symmetry 5

  Total CPU  time used in RESPONSE:   1.03 seconds
  Total wall time used in RESPONSE:   1.05 seconds


                   .-------------------------------------------.
                   | End of Dynamic Property Section (RESPONS) |
                   `-------------------------------------------'

  Total CPU  time used in DALTON:   1.40 seconds
  Total wall time used in DALTON:   1.43 seconds

 
     Date and time (Linux)  : Wed Jan 11 14:16:34 2023
     Host name              : cn040                                   
