

     ************************************************************************
     *************** Dalton - An Electronic Structure Program ***************
     ************************************************************************

    This is output from DALTON release Dalton2020.0 (2020)
         ( Web site: http://daltonprogram.org )

   ----------------------------------------------------------------------------

    NOTE:
     
    Dalton is an experimental code for the evaluation of molecular
    properties using (MC)SCF, DFT, CI, and CC wave functions.
    The authors accept no responsibility for the performance of
    the code or for the correctness of the results.
     
    The code (in whole or part) is provided under a licence and
    is not to be reproduced for further distribution without
    the written permission of the authors or their representatives.
     
    See the home page "http://daltonprogram.org" for further information.
     
    If results obtained with this code are published,
    the appropriate citations would be both of:
     
       K. Aidas, C. Angeli, K. L. Bak, V. Bakken, R. Bast,
       L. Boman, O. Christiansen, R. Cimiraglia, S. Coriani,
       P. Dahle, E. K. Dalskov, U. Ekstroem,
       T. Enevoldsen, J. J. Eriksen, P. Ettenhuber, B. Fernandez,
       L. Ferrighi, H. Fliegl, L. Frediani, K. Hald, A. Halkier,
       C. Haettig, H. Heiberg, T. Helgaker, A. C. Hennum,
       H. Hettema, E. Hjertenaes, S. Hoest, I.-M. Hoeyvik,
       M. F. Iozzi, B. Jansik, H. J. Aa. Jensen, D. Jonsson,
       P. Joergensen, J. Kauczor, S. Kirpekar,
       T. Kjaergaard, W. Klopper, S. Knecht, R. Kobayashi, H. Koch,
       J. Kongsted, A. Krapp, K. Kristensen, A. Ligabue,
       O. B. Lutnaes, J. I. Melo, K. V. Mikkelsen, R. H. Myhre,
       C. Neiss, C. B. Nielsen, P. Norman, J. Olsen,
       J. M. H. Olsen, A. Osted, M. J. Packer, F. Pawlowski,
       T. B. Pedersen, P. F. Provasi, S. Reine, Z. Rinkevicius,
       T. A. Ruden, K. Ruud, V. Rybkin, P. Salek, C. C. M. Samson,
       A. Sanchez de Meras, T. Saue, S. P. A. Sauer,
       B. Schimmelpfennig, K. Sneskov, A. H. Steindal,
       K. O. Sylvester-Hvid, P. R. Taylor, A. M. Teale,
       E. I. Tellgren, D. P. Tew, A. J. Thorvaldsen, L. Thoegersen,
       O. Vahtras, M. A. Watson, D. J. D. Wilson, M. Ziolkowski
       and H. Agren,
       "The Dalton quantum chemistry program system",
       WIREs Comput. Mol. Sci. 2014, 4:269–284 (doi: 10.1002/wcms.1172)
     
    and
     
       Dalton, a molecular electronic structure program,
       Release Dalton2020.0 (2020), see http://daltonprogram.org
   ----------------------------------------------------------------------------

    Authors in alphabetical order (Major contribution(s) in parenthesis):

  Kestutis Aidas,           Vilnius University,           Lithuania   (QM/MM)
  Celestino Angeli,         University of Ferrara,        Italy       (NEVPT2)
  Keld L. Bak,              UNI-C,                        Denmark     (AOSOPPA, non-adiabatic coupling, magnetic properties)
  Vebjoern Bakken,          University of Oslo,           Norway      (DALTON; geometry optimizer, symmetry detection)
  Radovan Bast,             UiT The Arctic U. of Norway,  Norway      (DALTON installation and execution frameworks)
  Pablo Baudin,             University of Valencia,       Spain       (Cholesky excitation energies)
  Linus Boman,              NTNU,                         Norway      (Cholesky decomposition and subsystems)
  Bruno N. Cabral Tenorio,  Technical Univ. of Denmark,   Denmark     (Lanczos-based CC methods)
  Ove Christiansen,         Aarhus University,            Denmark     (CC module)
  Renzo Cimiraglia,         University of Ferrara,        Italy       (NEVPT2)
  Sonia Coriani,            Technical Univ. of Denmark,   Denmark     (CC and RESPONS modules)
  Janusz Cukras,            University of Warsaw,         Poland      (MChD in RESPONS)
  Paal Dahle,               University of Oslo,           Norway      (Parallelization)
  Erik K. Dalskov,          UNI-C,                        Denmark     (SOPPA)
  Thomas Enevoldsen,        Univ. of Southern Denmark,    Denmark     (SOPPA)
  Janus J. Eriksen,         Aarhus University,            Denmark     (Polarizable embedding, TDA)
  Rasmus Faber,             Technical Univ. of Denmark,   Denmark     (Vib.avg. NMR w. SOPPA, parallel AO-SOPPA, CVS-CC and EOMCC)
  Tobias Fahleson,          KTH Stockholm,                Sweden      (Damped cubic response)
  Berta Fernandez,          U. of Santiago de Compostela, Spain       (Doublet spin, ESR in RESPONS)
  Lara Ferrighi,            Aarhus University,            Denmark     (PCM Cubic response)
  Heike Fliegl,             University of Oslo,           Norway      (CCSD(R12))
  Luca Frediani,            UiT The Arctic U. of Norway,  Norway      (PCM)
  Emmanuel Fromager,        Univ. Strasbourg,             France      (MC-srDFT)
  Bin Gao,                  UiT The Arctic U. of Norway,  Norway      (Gen1Int library)
  Andre S. P. Gomes,        CNRS/Universite de Lille,     France      (Frozen density embedding)
  Christof Haettig,         Ruhr-University Bochum,       Germany     (CC module)
  Kasper Hald,              Aarhus University,            Denmark     (CC module)
  Asger Halkier,            Aarhus University,            Denmark     (CC module)
  Frederik Beyer Hansen,    University of Copenhagen,     Denmark     (Parallel AO-SOPPA)
  Erik D. Hedegaard,        Univ. of Southern Denmark,    Denmark     (Polarizable embedding, QM/MM, and MC-srDFT)
  Hanne Heiberg,            University of Oslo,           Norway      (Geometry analysis, selected one-electron integrals)
  Trygve Helgaker,          University of Oslo,           Norway      (DALTON; ABACUS, ERI, DFT modules, London, and much more)
  Alf Christian Hennum,     University of Oslo,           Norway      (Parity violation)
  Hinne Hettema,            University of Auckland,       New Zealand (Quadratic response in RESPONS; SIRIUS supersymmetry)
  Eirik Hjertenaes,         NTNU,                         Norway      (Cholesky decomposition)
  Pi A. B. Haase,           University of Copenhagen,     Denmark     (Triplet AO-SOPPA)
  Maria Francesca Iozzi,    University of Oslo,           Norway      (RPA)
  Christoph Jacob           TU Braunschweig               Germany     (Frozen density embedding)
  Brano Jansik              Technical Univ. of Ostrava    Czech Rep.  (DFT cubic response)
  Hans Joergen Aa. Jensen,  Univ. of Southern Denmark,    Denmark     (DALTON; SIRIUS, RESPONS, ABACUS, MC-srDFT, and much more)
  Dan Jonsson,              UiT The Arctic U. of Norway,  Norway      (Cubic response in RESPONS module)
  Poul Joergensen,          Aarhus University,            Denmark     (RESPONS, ABACUS, and CC modules)
  Maciej Kaminski,          University of Warsaw,         Poland      (CPPh in RESPONS)
  Joanna Kauczor,           Linkoeping University,        Sweden      (Complex polarization propagator (CPP) module)
  Sheela Kirpekar,          Univ. of Southern Denmark,    Denmark     (Mass-velocity & Darwin integrals)
  Erik Kjellgren,           Univ. of Southern Denmark,    Denmark     (MC-srDFT)
  Wim Klopper,              KIT Karlsruhe,                Germany     (R12 code in CC, SIRIUS, and ABACUS modules)
  Stefan Knecht,            ETH Zurich,                   Switzerland (Parallel CI and MCSCF, MC-srDFT)
  Rika Kobayashi,           Australian National Univ.,    Australia   (DIIS in CC, London in MCSCF)
  Henrik Koch,              NTNU,                         Norway      (CC module, Cholesky decomposition)
  Jacob Kongsted,           Univ. of Southern Denmark,    Denmark     (Polarizable embedding, polarizable density embedding, QM/MM)
  Andrea Ligabue,           University of Modena,         Italy       (CTOCD, AOSOPPA)
  Nanna H. List             Univ. of Southern Denmark,    Denmark     (Polarizable embedding)
  Ola B. Lutnaes,           University of Oslo,           Norway      (DFT Hessian)
  Juan I. Melo,             University of Buenos Aires,   Argentina   (LRESC, Relativistic Effects on NMR Shieldings)
  Kurt V. Mikkelsen,        University of Copenhagen,     Denmark     (MC-SCRF and QM/MM)
  Rolf H. Myhre,            NTNU,                         Norway      (Subsystems and CC3)
  Christian Neiss,          Univ. Erlangen-Nuernberg,     Germany     (CCSD(R12))
  Christian B. Nielsen,     University of Copenhagen,     Denmark     (QM/MM)
  Patrick Norman,           KTH Stockholm,                Sweden      (Cubic response and complex frequency response in RESPONS)
  Jeppe Olsen,              Aarhus University,            Denmark     (SIRIUS CI/density modules)
  Jogvan Magnus H. Olsen,   Aarhus University,            Denmark     (Polarizable embedding and polarizable density embedding)
  Anders Osted,             Copenhagen University,        Denmark     (QM/MM)
  Martin J. Packer,         University of Sheffield,      UK          (SOPPA)
  Filip Pawlowski,          Kazimierz Wielki University,  Poland      (CC3)
  Morten N. Pedersen,       Univ. of Southern Denmark,    Denmark     (Polarizable embedding)
  Thomas B. Pedersen,       University of Oslo,           Norway      (Cholesky decomposition)
  Patricio F. Provasi,      University of Northeastern,   Argentina   (Analysis of coupling constants in localized orbitals)
  Peter Reinholdt,          Univ. of Southern Denmark,    Denmark     (Polarizable embedding and polarizable density embedding)
  Zilvinas Rinkevicius,     KTH Stockholm,                Sweden      (open-shell DFT, ESR)
  Elias Rudberg,            KTH Stockholm,                Sweden      (DFT grid and basis info)
  Torgeir A. Ruden,         University of Oslo,           Norway      (Numerical derivatives in ABACUS)
  Kenneth Ruud,             UiT The Arctic U. of Norway,  Norway      (DALTON; ABACUS magnetic properties and much more)
  Pawel Salek,              KTH Stockholm,                Sweden      (DALTON; DFT code)
  Claire C. M. Samson       University of Karlsruhe       Germany     (Boys localization, r12 integrals in ERI)
  Alfredo Sanchez de Meras, University of Valencia,       Spain       (CC module, Cholesky decomposition)
  Trond Saue,               Paul Sabatier University,     France      (direct Fock matrix construction)
  Stephan P. A. Sauer,      University of Copenhagen,     Denmark     (SOPPA(CCSD), SOPPA prop., AOSOPPA, vibrational g-factors)
  Bernd Schimmelpfennig,    Forschungszentrum Karlsruhe,  Germany     (AMFI module)
  Anna K. Schnack-Petersen, University of Copenhagen,     Denmark     (RPA(D) and HRPA(D) properties in AOSOPPA)
  Kristian Sneskov,         Aarhus University,            Denmark     (Polarizable embedding, QM/MM)
  Arnfinn H. Steindal,      UiT The Arctic U. of Norway,  Norway      (parallel QM/MM, polarizable embedding)
  Casper Steinmann,         Aalborg University,           Denmark     (QFIT, polarizable embedding)
  K. O. Sylvester-Hvid,     University of Copenhagen,     Denmark     (MC-SCRF)
  Peter R. Taylor,          VLSCI/Univ. of Melbourne,     Australia   (Symmetry handling ABACUS, integral transformation)
  Andrew M. Teale,          University of Nottingham,     England     (DFT-AC, DFT-D)
  David P. Tew,             University of Bristol,        England     (CCSD(R12))
  Julien Toulouse,          Sorbonne Univ.,               France      (MC-srDFT)
  Olav Vahtras,             KTH Stockholm,                Sweden      (Triplet response, spin-orbit, ESR, TDDFT, open-shell DFT)
  Lucas Visscher,           Vrije Universiteit Amsterdam, Netherlands (Frozen density embedding)
  David J. Wilson,          La Trobe University,          Australia   (DFT Hessian and DFT magnetizabilities)
  Hans Agren,               KTH Stockholm,                Sweden      (SIRIUS module, RESPONS, MC-SCRF solvation)
 --------------------------------------------------------------------------------

     Date and time (Linux)  : Wed Jan 11 14:23:17 2023
     Host name              : cn040                                   

 * Work memory size             :    64000000 =  488.28 megabytes.

 * Directories for basis set searches:
   1) /gpfs/projects/rjh/adrian/fd_compare/dalton/hf/F2/dipole
   2) /gpfs/projects/rjh/adrian/dalton/build/basis


Compilation information
-----------------------

 Who compiled             | ahurtado
 Host                     | sn-mem
 System                   | Linux-3.10.0-1160.24.1.el7.x86_64
 CMake generator          | Unix Makefiles
 Processor                | x86_64
 64-bit integers          | OFF
 MPI                      | ON
 Fortran compiler         | /gpfs/software/intel/oneAPI/2021_4/mpi/2021.4.0/bi
                          | n/mpif90
 Fortran compiler version | GNU Fortran (GCC) 11.2.0
 C compiler               | /gpfs/software/intel/oneAPI/2021_4/mpi/2021.4.0/bi
                          | n/mpicc
 C compiler version       | gcc (GCC) 11.2.0
 C++ compiler             | /gpfs/software/intel/oneAPI/2021_4/mpi/2021.4.0/bi
                          | n/mpicxx
 C++ compiler version     | unknown
 BLAS                     | /gpfs/software/intel/oneAPI/2021_4/mkl/2021.4.0/li
                          | b/intel64/libmkl_gf_lp64.so;/gpfs/software/intel/o
                          | neAPI/2021_4/mkl/2021.4.0/lib/intel64/libmkl_seque
                          | ntial.so;/gpfs/software/intel/oneAPI/2021_4/mkl/20
                          | 21.4.0/lib/intel64/libmkl_core.so;/usr/lib64/libpt
                          | hread.so;/usr/lib64/libm.so
 LAPACK                   | /gpfs/software/intel/oneAPI/2021_4/mkl/2021.4.0/li
                          | b/intel64/libmkl_lapack95_lp64.a;/gpfs/software/in
                          | tel/oneAPI/2021_4/mkl/2021.4.0/lib/intel64/libmkl_
                          | gf_lp64.so
 Static linking           | OFF
 Last Git revision        | 66052b3af5ea7225e31178bf9a8b031913c72190
 Git branch               | (HEAD detached at Dalton2020.0)
 Configuration time       | 2023-01-11 13:33:37.731835

 * MPI parallel run using 20 processes.


   Content of the .dal input file
 ----------------------------------

**DALTON INPUT
.RUN RESPONSE
.DIRECT
**WAVE FUNCTIONS
.HF
**RESPONSE
*LINEAR
.DIPLEN
.FREQUENCIES
9
0.0 0.0110174375 0.022034875 0.0330523125 0.04406975 0.055087187499999996 0.066104625 0.077122062499
**END OF DALTON INPUT


   Content of the .mol file
 ----------------------------

BASIS
aug-cc-pCVTZ
blah
blah
Atomtype=1 Atomic
Charge=9 Atoms=2
F_a 0.000000000000 0.000000000000 0.000000000000
F_b 0.000000000000 0.000000000000 2.668160000000


       *******************************************************************
       *********** Output from DALTON general input processing ***********
       *******************************************************************

 --------------------------------------------------------------------------------
   Overall default print level:    0
   Print level for DALTON.STAT:    1

    Parallel calculation using MPI
    AO-direct calculation (in sections where implemented)
    HERMIT 1- and 2-electron integral sections will be executed
    "Old" integral transformation used (limited to max 255 basis functions)
    Wave function sections will be executed (SIRIUS module)
    Dynamic molecular response properties section will be executed (RESPONSE module)
 --------------------------------------------------------------------------------


   ****************************************************************************
   *************** Output of molecule and basis set information ***************
   ****************************************************************************


    The two title cards from your ".mol" input:
    ------------------------------------------------------------------------
 1: blah                                                                    
 2: blah                                                                    
    ------------------------------------------------------------------------

  Atomic type no.    1
  --------------------
  Nuclear charge:   9.00000
  Number of symmetry independent centers:    2
  Number of basis sets to read;    2
  Basis set file used for this atomic type with Z =   9 :
     "/gpfs/projects/rjh/adrian/dalton/build/basis/aug-cc-pCVTZ"


                      SYMADD: Requested addition of symmetry
                      --------------------------------------

 Symmetry test threshold:  5.00E-06

@   The molecule is centered at center of mass and rotated
@   so principal axes of inertia are along coordinate axes.

 Symmetry class found: D(oo,h)        

 Symmetry Independent Centres             
 ----------------------------
F_b    9 :      0.00000000     0.00000000     1.33408000  Isotope  1

 The following symmetry elements were found:   X  Y  Z  


                         SYMGRP: Point group information
                         -------------------------------

@    Full point group is: D(oo,h)        
@    Represented as:      D2h

@  * The irrep name for each symmetry:    1: Ag     2: B3u    3: B2u    4: B1g    5: B1u    6: B2g    7: B3g    8: Au 


   * The point group was generated by:

      Reflection in the yz-plane
      Reflection in the xz-plane
      Reflection in the xy-plane

   * Group multiplication table

        |  E   C2z  C2y  C2x   i   Oxy  Oxz  Oyz
   -----+----------------------------------------
     E  |  E   C2z  C2y  C2x   i   Oxy  Oxz  Oyz
    C2z | C2z   E   C2x  C2y  Oxy   i   Oyz  Oxz
    C2y | C2y  C2x   E   C2z  Oxz  Oyz   i   Oxy
    C2x | C2x  C2y  C2z   E   Oyz  Oxz  Oxy   i 
     i  |  i   Oxy  Oxz  Oyz   E   C2z  C2y  C2x
    Oxy | Oxy   i   Oyz  Oxz  C2z   E   C2x  C2y
    Oxz | Oxz  Oyz   i   Oxy  C2y  C2x   E   C2z
    Oyz | Oyz  Oxz  Oxy   i   C2x  C2y  C2z   E 

   * Character table

        |  E   C2z  C2y  C2x   i   Oxy  Oxz  Oyz
   -----+----------------------------------------
    Ag  |   1    1    1    1    1    1    1    1
    B3u |   1   -1   -1    1   -1    1    1   -1
    B2u |   1   -1    1   -1   -1    1   -1    1
    B1g |   1    1   -1   -1    1    1   -1   -1
    B1u |   1    1   -1   -1   -1   -1    1    1
    B2g |   1   -1    1   -1    1   -1    1   -1
    B3g |   1   -1   -1    1    1   -1   -1    1
    Au  |   1    1    1    1   -1   -1   -1   -1

   * Direct product table

        | Ag   B3u  B2u  B1g  B1u  B2g  B3g  Au 
   -----+----------------------------------------
    Ag  | Ag   B3u  B2u  B1g  B1u  B2g  B3g  Au 
    B3u | B3u  Ag   B1g  B2u  B2g  B1u  Au   B3g
    B2u | B2u  B1g  Ag   B3u  B3g  Au   B1u  B2g
    B1g | B1g  B2u  B3u  Ag   Au   B3g  B2g  B1u
    B1u | B1u  B2g  B3g  Au   Ag   B3u  B2u  B1g
    B2g | B2g  B1u  Au   B3g  B3u  Ag   B1g  B2u
    B3g | B3g  Au   B1u  B2g  B2u  B1g  Ag   B3u
    Au  | Au   B3g  B2g  B1u  B1g  B2u  B3u  Ag 


                                 Isotopic Masses
                                 ---------------

                           F_b _1     18.998403
                           F_b _2     18.998403

                       Total mass:    37.996806 amu
                       Natural abundance: 100.000 %

 Center-of-mass coordinates (a.u.):    0.000000    0.000000    0.000000
 Center-of-mass coordinates (Angs):    0.000000    0.000000    0.000000


  Atoms and basis sets
  --------------------

  Number of atom types :    1
  Total number of atoms:    2

  Basis set used is "aug-cc-pCVTZ" from the basis set library.

  label    atoms   charge   prim   cont     basis
  ----------------------------------------------------------------------
  F_          2    9.0000    71    59      [13s8p4d2f|7s6p4d2f]                               
  ----------------------------------------------------------------------
  total:      2   18.0000   142   118
  ----------------------------------------------------------------------
  Spherical harmonic basis used.

  Threshold for neglecting AO integrals:  1.00D-12


  Cartesian Coordinates (a.u.)
  ----------------------------

  Total number of coordinates:    6
  F_b / 1 :     1  x   0.0000000000    2  y   0.0000000000    3  z   1.3340800000
  F_b / 2 :     4  x   0.0000000000    5  y   0.0000000000    6  z  -1.3340800000


  Symmetry Coordinates
  --------------------

  Number of coordinates in each symmetry:     1    1    1    0    1    1    1    0

  Symmetry  Ag  ( 1)

    1   F_b   z    [  3  -    6 ]/2

  Symmetry  B3u ( 2)

    2   F_b   x    [  1  +    4 ]/2

  Symmetry  B2u ( 3)

    3   F_b   y    [  2  +    5 ]/2

  Symmetry  B1u ( 5)

    4   F_b   z    [  3  +    6 ]/2

  Symmetry  B2g ( 6)

    5   F_b   x    [  1  -    4 ]/2

  Symmetry  B3g ( 7)

    6   F_b   y    [  2  -    5 ]/2


   Interatomic separations (in Angstrom):
   --------------------------------------

            F_b _1      F_b _2
            ------      ------
 F_b _1:    0.000000
 F_b _2:    1.411929    0.000000


  Max    interatomic separation is    1.4119 Angstrom (    2.6682 Bohr)
  between atoms    2 and    1, "F_b _2" and "F_b _1".

  Min YX interatomic separation is    1.4119 Angstrom (    2.6682 Bohr)


  Bond distances (Angstrom):
  --------------------------

                  atom 1     atom 2       distance
                  ------     ------       --------
  bond distance:  F_b _2     F_b _1       1.411929




 Principal moments of inertia (u*A**2) and principal axes
 --------------------------------------------------------

   IA       0.000000          0.000000    0.000000    1.000000
   IB      18.937084          0.000000    1.000000    0.000000
   IC      18.937084          1.000000    0.000000    0.000000


 Rotational constants
 --------------------

@    The molecule is linear.

               B =        26687.27 MHz     (    0.890191 cm-1)


@  Nuclear repulsion energy :   30.357999520269 Hartree


  Symmetry Orbitals
  -----------------

  Number of orbitals in each symmetry:          25   14   14    6   25   14   14    6


  Symmetry  Ag ( 1)

    1     F_b      1s         1 +    2
    2     F_b      1s         3 +    4
    3     F_b      1s         5 +    6
    4     F_b      1s         7 +    8
    5     F_b      1s         9 +   10
    6     F_b      1s        11 +   12
    7     F_b      1s        13 +   14
    8     F_b      2pz       19 -   20
    9     F_b      2pz       25 -   26
   10     F_b      2pz       31 -   32
   11     F_b      2pz       37 -   38
   12     F_b      2pz       43 -   44
   13     F_b      2pz       49 -   50
   14     F_b      3d0       55 +   56
   15     F_b      3d2+      59 +   60
   16     F_b      3d0       65 +   66
   17     F_b      3d2+      69 +   70
   18     F_b      3d0       75 +   76
   19     F_b      3d2+      79 +   80
   20     F_b      3d0       85 +   86
   21     F_b      3d2+      89 +   90
   22     F_b      4f0       97 -   98
   23     F_b      4f2+     101 -  102
   24     F_b      4f0      111 -  112
   25     F_b      4f2+     115 -  116


  Symmetry  B3u( 2)

   26     F_b      2px       15 +   16
   27     F_b      2px       21 +   22
   28     F_b      2px       27 +   28
   29     F_b      2px       33 +   34
   30     F_b      2px       39 +   40
   31     F_b      2px       45 +   46
   32     F_b      3d1+      57 -   58
   33     F_b      3d1+      67 -   68
   34     F_b      3d1+      77 -   78
   35     F_b      3d1+      87 -   88
   36     F_b      4f1+      99 +  100
   37     F_b      4f3+     103 +  104
   38     F_b      4f1+     113 +  114
   39     F_b      4f3+     117 +  118


  Symmetry  B2u( 3)

   40     F_b      2py       17 +   18
   41     F_b      2py       23 +   24
   42     F_b      2py       29 +   30
   43     F_b      2py       35 +   36
   44     F_b      2py       41 +   42
   45     F_b      2py       47 +   48
   46     F_b      3d1-      53 -   54
   47     F_b      3d1-      63 -   64
   48     F_b      3d1-      73 -   74
   49     F_b      3d1-      83 -   84
   50     F_b      4f3-      91 +   92
   51     F_b      4f1-      95 +   96
   52     F_b      4f3-     105 +  106
   53     F_b      4f1-     109 +  110


  Symmetry  B1g( 4)

   54     F_b      3d2-      51 +   52
   55     F_b      3d2-      61 +   62
   56     F_b      3d2-      71 +   72
   57     F_b      3d2-      81 +   82
   58     F_b      4f2-      93 -   94
   59     F_b      4f2-     107 -  108


  Symmetry  B1u( 5)

   60     F_b      1s         1 -    2
   61     F_b      1s         3 -    4
   62     F_b      1s         5 -    6
   63     F_b      1s         7 -    8
   64     F_b      1s         9 -   10
   65     F_b      1s        11 -   12
   66     F_b      1s        13 -   14
   67     F_b      2pz       19 +   20
   68     F_b      2pz       25 +   26
   69     F_b      2pz       31 +   32
   70     F_b      2pz       37 +   38
   71     F_b      2pz       43 +   44
   72     F_b      2pz       49 +   50
   73     F_b      3d0       55 -   56
   74     F_b      3d2+      59 -   60
   75     F_b      3d0       65 -   66
   76     F_b      3d2+      69 -   70
   77     F_b      3d0       75 -   76
   78     F_b      3d2+      79 -   80
   79     F_b      3d0       85 -   86
   80     F_b      3d2+      89 -   90
   81     F_b      4f0       97 +   98
   82     F_b      4f2+     101 +  102
   83     F_b      4f0      111 +  112
   84     F_b      4f2+     115 +  116


  Symmetry  B2g( 6)

   85     F_b      2px       15 -   16
   86     F_b      2px       21 -   22
   87     F_b      2px       27 -   28
   88     F_b      2px       33 -   34
   89     F_b      2px       39 -   40
   90     F_b      2px       45 -   46
   91     F_b      3d1+      57 +   58
   92     F_b      3d1+      67 +   68
   93     F_b      3d1+      77 +   78
   94     F_b      3d1+      87 +   88
   95     F_b      4f1+      99 -  100
   96     F_b      4f3+     103 -  104
   97     F_b      4f1+     113 -  114
   98     F_b      4f3+     117 -  118


  Symmetry  B3g( 7)

   99     F_b      2py       17 -   18
  100     F_b      2py       23 -   24
  101     F_b      2py       29 -   30
  102     F_b      2py       35 -   36
  103     F_b      2py       41 -   42
  104     F_b      2py       47 -   48
  105     F_b      3d1-      53 +   54
  106     F_b      3d1-      63 +   64
  107     F_b      3d1-      73 +   74
  108     F_b      3d1-      83 +   84
  109     F_b      4f3-      91 -   92
  110     F_b      4f1-      95 -   96
  111     F_b      4f3-     105 -  106
  112     F_b      4f1-     109 -  110


  Symmetry  Au ( 8)

  113     F_b      3d2-      51 -   52
  114     F_b      3d2-      61 -   62
  115     F_b      3d2-      71 -   72
  116     F_b      3d2-      81 -   82
  117     F_b      4f2-      93 +   94
  118     F_b      4f2-     107 +  108

  Symmetries of electric field:  B3u(2)  B2u(3)  B1u(5)

  Symmetries of magnetic field:  B3g(7)  B2g(6)  B1g(4)


                     .---------------------------------------.
                     | Starting in Integral Section (HERMIT) |
                     `---------------------------------------'



 ***************************************************************************************
 ****************** Output from **INTEGRALS input processing (HERMIT) ******************
 ***************************************************************************************


 - Using defaults, no **INTEGRALS input found

 Default print level:        1

 Calculation of one-electron Hamiltonian integrals.

 Center of mass  (bohr):      0.000000000000      0.000000000000      0.000000000000
 Operator center (bohr):      0.000000000000      0.000000000000      0.000000000000
 Gauge origin    (bohr):      0.000000000000      0.000000000000      0.000000000000
 Dipole origin   (bohr):      0.000000000000      0.000000000000      0.000000000000


     ************************************************************************
     ************************** Output from HERINT **************************
     ************************************************************************



                      Nuclear contribution to dipole moments
                      --------------------------------------

                    All dipole components are zero by symmetry


  Total CPU  time used in HERMIT:   0.09 seconds
  Total wall time used in HERMIT:   0.10 seconds


                        .----------------------------------.
                        | End of Integral Section (HERMIT) |
                        `----------------------------------'



                   .--------------------------------------------.
                   | Starting in Wave Function Section (SIRIUS) |
                   `--------------------------------------------'


 *** Output from Huckel module :

     Using EWMO model:          F
     Using EHT  model:          T
     Number of Huckel orbitals each symmetry:    3    1    1    0    3    1    1    0

 Huckel EHT eigenvalues for symmetry :  1
          -26.385657      -1.787625      -0.792360

 Huckel EHT eigenvalues for symmetry :  2
           -0.800215

 Huckel EHT eigenvalues for symmetry :  3
           -0.800215

 Huckel EHT eigenvalues for symmetry :  5
          -26.385463      -1.454670      -0.564625

 Huckel EHT eigenvalues for symmetry :  6
           -0.659785

 Huckel EHT eigenvalues for symmetry :  7
           -0.659785

 **********************************************************************
 *SIRIUS* a direct, restricted step, second order MCSCF program       *
 **********************************************************************

 
     Date and time (Linux)  : Wed Jan 11 14:23:17 2023
     Host name              : cn040                                   

 Title lines from ".mol" input file:
     blah                                                                    
     blah                                                                    

 Print level on unit LUPRI =   2 is   0
 Print level on unit LUW4  =   2 is   5

@    Restricted, closed shell Hartree-Fock calculation.

@    Time-dependent Hartree-Fock calculation (random phase approximation).
 Fock matrices are calculated directly and in parallel without use of integrals on disk.

 Initial molecular orbitals are obtained according to
 ".MOSTART EHT   " input option

     Wave function specification
     ============================
@    Wave function type        --- HF ---
@    Number of closed shell electrons          18
@    Number of electrons in active shells       0
@    Total charge of the molecule               0

@    Spin multiplicity and 2 M_S                1         0
@    Total number of symmetries                 8 (point group: D2h)
@    Reference state symmetry                   1 (irrep name : Ag )

     Orbital specifications
     ======================
@    Abelian symmetry species          All |    1    2    3    4    5    6    7    8
@                                          |  Ag   B3u  B2u  B1g  B1u  B2g  B3g  Au 
                                       --- |  ---  ---  ---  ---  ---  ---  ---  ---
@    Total number of orbitals          118 |   25   14   14    6   25   14   14    6
@    Number of basis functions         118 |   25   14   14    6   25   14   14    6

      ** Automatic occupation of RHF orbitals **

      -- Initial occupation of symmetries is determined from extended Huckel guess.           
      -- Initial occupation of symmetries is :
@    Occupied SCF orbitals               9 |    3    1    1    0    2    1    1    0

     Maximum number of Fock   iterations      0
     Maximum number of DIIS   iterations     60
     Maximum number of QC-SCF iterations     60
     Threshold for SCF convergence     1.00D-05


 ***********************************************
 ***** DIIS acceleration of SCF iterations *****
 ***********************************************

 C1-DIIS algorithm; max error vectors =    8

 Automatic occupation of symmetries with  18 electrons.

 Iter     Total energy    Error norm  Delta(E)    SCF occupation
 -----------------------------------------------------------------------------
   1  Screening settings (-IFTHRS, JTDIIS, DIFDEN, times)   -7    1    T  1.56D-01  1.56D-01
@  1  -198.637499508       2.12D+00  -1.99D+02     3   1   1   0   2   1   1   0
      Virial theorem: -V/T =      2.001567
@    MULPOP   F_b _1  0.00; F_b _2  0.00; 
   1  Level shift: doubly occupied orbital energies shifted by -2.00D-01
 -----------------------------------------------------------------------------
   2  Screening settings (-IFTHRS, JTDIIS, DIFDEN, times)   -7    2    T  1.36D-01  1.37D-01
@  2  -198.748186793       4.47D-01  -1.11D-01     3   1   1   0   2   1   1   0
      Virial theorem: -V/T =      1.999902
@    MULPOP   F_b _1 -0.00; F_b _2 -0.00; 
   2  Level shift: doubly occupied orbital energies shifted by -5.00D-02
 -----------------------------------------------------------------------------
   3  Screening settings (-IFTHRS, JTDIIS, DIFDEN, times)   -7    3    T  1.36D-01  1.36D-01
@  3  -198.754407741       9.03D-02  -6.22D-03     3   1   1   0   2   1   1   0
      Virial theorem: -V/T =      2.001643
@    MULPOP   F_b _1 -0.00; F_b _2 -0.00; 
   3  Level shift: doubly occupied orbital energies shifted by -1.25D-02
 -----------------------------------------------------------------------------
   4  Screening settings (-IFTHRS, JTDIIS, DIFDEN, times)  -11    4    F  1.41D-01  1.41D-01
@  4  -198.755086472       3.25D-02  -6.79D-04     3   1   1   0   2   1   1   0
      Virial theorem: -V/T =      2.000920
@    MULPOP   F_b _1  0.00; F_b _2  0.00; 
 -----------------------------------------------------------------------------
   5  Screening settings (-IFTHRS, JTDIIS, DIFDEN, times)  -11    5    T  1.33D-01  1.34D-01
@  5  -198.755142893       6.89D-03  -5.64D-05     3   1   1   0   2   1   1   0
      Virial theorem: -V/T =      2.001178
@    MULPOP   F_b _1  0.00; F_b _2  0.00; 
 -----------------------------------------------------------------------------
   6  Screening settings (-IFTHRS, JTDIIS, DIFDEN, times)  -11    6    T  1.19D-01  1.19D-01
@  6  -198.755145279       7.40D-04  -2.39D-06     3   1   1   0   2   1   1   0
      Virial theorem: -V/T =      2.001122
@    MULPOP   F_b _1 -0.00; F_b _2 -0.00; 
 -----------------------------------------------------------------------------
   7  Screening settings (-IFTHRS, JTDIIS, DIFDEN, times)  -11    7    T  1.17D-01  1.17D-01
@  7  -198.755145322       7.64D-05  -4.33D-08     3   1   1   0   2   1   1   0
      Virial theorem: -V/T =      2.001125
@    MULPOP   F_b _1 -0.00; F_b _2 -0.00; 
 -----------------------------------------------------------------------------
   8  Screening settings (-IFTHRS, JTDIIS, DIFDEN, times)  -11    8    T  1.16D-01  1.16D-01
@  8  -198.755145322       8.29D-06  -4.49D-10     3   1   1   0   2   1   1   0

@ *** DIIS converged in   8 iterations !
@     Converged SCF energy, gradient:   -198.755145322376    8.29D-06
    - total time used in SIRFCK :              0.00 seconds


 *** SCF orbital energy analysis ***

 Only the 20 lowest virtual orbital energies printed in each symmetry.

 Number of electrons :   18
 Orbital occupations :    3    1    1    0    2    1    1    0

 Sym       Hartree-Fock orbital energies

1 Ag    -26.43231172    -1.76708786    -0.75306569     0.17602992     0.26363546
          0.77779563     0.96402801     1.30287498     1.69713290     2.58504867
          2.63807687     2.84285083     3.76081031     5.18980322     6.78602379
          8.69401388     8.74373261     9.15713139     9.95727302    31.98543942
         34.80969566    53.06179060    53.19711139

2 B3u    -0.81210193     0.19189982     0.92932622     1.07744742     2.45991076
          2.75613953     3.38109406     4.98744214     8.70796323     8.94663156
          9.13959790    31.88617921    53.02277766   170.34704726

3 B2u    -0.81210193     0.19189982     0.92932622     1.07744742     2.45991076
          2.75613953     3.38109406     4.98744214     8.70796323     8.94663156
          9.13959790    31.88617921    53.02277766   170.34704726

4 B1g     0.77779563     2.58504867     2.84285083     8.74373261     9.15713139
         53.06179060

5 B1u   -26.43207524    -1.49992217     0.06315783     0.17093960     0.42974553
          1.02688746     1.04058263     1.18857606     2.50294286     2.87986667
          3.22680791     3.54979543     3.65609370     6.59406369     7.55506264
          8.95205158     9.27553979     9.35319894    10.30440496    33.29761795
         35.77207991    53.10467304

6 B2g    -0.66755063     0.24525194     1.06988703     1.46525363     3.02558422
          3.04300282     4.21626849     5.17833126     8.82250404     9.18783263
          9.66856810    32.01505616    53.21901451   170.43427399

7 B3g    -0.66755063     0.24525194     1.06988703     1.46525363     3.02558422
          3.04300282     4.21626849     5.17833126     8.82250404     9.18783263
          9.66856810    32.01505616    53.21901451   170.43427399

8 Au      1.02688746     2.87986667     3.54979543     8.95205158     9.27553979
         53.10467304

    E(LUMO) :     0.06315783 au (symmetry 5)
  - E(HOMO) :    -0.66755063 au (symmetry 7)
  ------------------------------------------
    gap     :     0.73070846 au

 --- Writing SIRIFC interface file

 CPU and wall time for SCF :       1.069       1.071


                       .-----------------------------------.
                       | --- Final results from SIRIUS --- |
                       `-----------------------------------'


@    Spin multiplicity:           1
@    Spatial symmetry:            1 ( irrep  Ag  in D2h )
@    Total charge of molecule:    0

@    Final HF energy:            -198.755145322376                 
@    Nuclear repulsion:            30.357999520269
@    Electronic energy:          -229.113144842645

@    Final gradient norm:           0.000008288299

 
     Date and time (Linux)  : Wed Jan 11 14:23:18 2023
     Host name              : cn040                                   

File label for MO orbitals:  11Jan23   FOCKDIIS

 (Only coefficients > 0.0100 are printed.)

 Molecular orbitals for symmetry species 1  (Ag )
 ------------------------------------------------

    Orbital         1        2        3        4        5        6        7
   1 F_b :1s     0.7066   0.0002   0.0026  -0.0426  -0.0383  -0.0000   0.0146
   2 F_b :1s    -0.0019   0.6726   0.1640  -0.0235  -0.0480  -0.0000   0.0818
   3 F_b :1s     0.0007  -0.0052   0.0059   0.0664   0.0555   0.0000  -0.0090
   4 F_b :1s     0.0013  -0.0314   0.0444   0.5578   0.6550  -0.0000  -0.7735
   5 F_b :1s    -0.0003   0.0011  -0.0003  -0.0221  -0.0192  -0.0000   0.0052
   7 F_b :1s    -0.0003   0.0013   0.0183  -0.9284  -0.3036   0.0000   0.2252
   8 F_b :2pz   -0.0014  -0.0843   0.6252   0.1100  -0.0522   0.0000  -0.2464
   9 F_b :2pz    0.0012  -0.0099   0.0200  -0.0383  -0.0073  -0.0000  -0.0483
  10 F_b :2pz    0.0000   0.0111  -0.0045   0.1246  -0.1116  -0.0000   0.5804
  13 F_b :2pz    0.0000   0.0021   0.0075  -0.6756   1.1279   0.0000  -0.8394
  16 F_b :3d0   -0.0002   0.0022  -0.0062   0.0008   0.0003  -0.0000   0.0284
  17 F_b :3d2+  -0.0000  -0.0000  -0.0000  -0.0000  -0.0000  -0.0285   0.0000
  18 F_b :3d0   -0.0001   0.0112  -0.0231  -0.0025   0.0399  -0.0000  -0.0930
  19 F_b :3d2+   0.0000   0.0000   0.0000   0.0000   0.0000   0.0743  -0.0000
  20 F_b :3d0    0.0005   0.0025  -0.0155  -0.0001  -0.1304   0.0000   0.9250
  21 F_b :3d2+  -0.0000  -0.0000  -0.0000  -0.0000  -0.0000  -0.6450   0.0000
  22 F_b :4f0    0.0001  -0.0016   0.0036  -0.0023  -0.0074   0.0000   0.0149
  24 F_b :4f0   -0.0004  -0.0039   0.0057   0.0089   0.0225   0.0000  -0.0764

    Orbital         8        9       10       11       12       13
   1 F_b :1s     0.4310  -0.2888   0.0000  -0.1174  -0.0000  -0.1938
   2 F_b :1s     2.1446  -1.4078   0.0000  -0.3761   0.0000  -1.0917
   3 F_b :1s    -0.4904   0.3355  -0.0000   0.1982  -0.0000   0.1041
   4 F_b :1s    -2.9704   0.5242   0.0000  -0.3217  -0.0000   0.1341
   5 F_b :1s     0.1857  -0.1237   0.0000  -0.0596   0.0000  -0.0605
   6 F_b :1s     0.0253  -0.0174   0.0000  -0.0053   0.0000  -0.0182
   7 F_b :1s     0.8197   0.1492   0.0000   0.1976   0.0000   0.2528
   8 F_b :2pz    0.1267   0.3074   0.0000  -0.2792  -0.0000   0.7149
   9 F_b :2pz    0.3120   0.4564  -0.0000   0.2926   0.0000   0.0762
  10 F_b :2pz   -0.6714  -0.9091  -0.0000  -0.0917   0.0000  -0.8242
  13 F_b :2pz   -0.0552  -0.0600   0.0000  -0.3219  -0.0000  -0.2198
  16 F_b :3d0    0.0064   0.0190  -0.0000  -0.0184   0.0000   0.0392
  18 F_b :3d0   -0.0593  -0.1291   0.0000  -0.8706   0.0000  -0.3400
  19 F_b :3d2+   0.0000   0.0000   0.5268   0.0000   0.7129   0.0000
  20 F_b :3d0    0.4558   0.9098   0.0000   0.9159  -0.0000   0.8792
  21 F_b :3d2+  -0.0000   0.0000  -0.3416   0.0000  -0.3054  -0.0000
  22 F_b :4f0    0.0246  -0.0024   0.0000   0.0437  -0.0000   0.1157
  23 F_b :4f2+  -0.0000  -0.0000   0.0709   0.0000  -0.0589  -0.0000
  24 F_b :4f0   -0.1011   0.0719   0.0000  -0.1382  -0.0000  -0.9028
  25 F_b :4f2+   0.0000   0.0000  -0.5235  -0.0000   0.4185   0.0000

 Molecular orbitals for symmetry species 2  (B3u)
 ------------------------------------------------

    Orbital         1        2        3        4        5        6        7
   1 F_b :2px    0.6788   0.1837   0.1127   0.4451  -0.1738   0.0000  -0.2634
   2 F_b :2px    0.0039  -0.0466   0.0190   0.3310   0.1084  -0.0000   0.1235
   3 F_b :2px   -0.0220   0.1968   0.1248  -1.1615   0.1055  -0.0000  -0.0565
   6 F_b :2px    0.0074  -0.6449  -0.0397   0.3745   0.0054  -0.0000   0.0539
   8 F_b :3d1+  -0.0029  -0.0010   0.0314  -0.0037  -0.0002   0.0000  -0.0108
   9 F_b :3d1+  -0.0123  -0.0023  -0.0634   0.0114  -0.7282  -0.0000   0.5804
  10 F_b :3d1+  -0.0024   0.0013   0.6806  -0.1274   0.4778  -0.0000  -0.3706
  11 F_b :4f1+   0.0027   0.0021  -0.0040  -0.0038  -0.0182  -0.0000  -0.0817
  12 F_b :4f3+   0.0000   0.0000   0.0000   0.0000  -0.0000  -0.1102  -0.0000
  13 F_b :4f1+   0.0051  -0.0034   0.0152   0.0264   0.2320  -0.0000   0.6802
  14 F_b :4f3+  -0.0000  -0.0000  -0.0000  -0.0000   0.0000   0.7390   0.0000

    Orbital         8        9       10       11
   1 F_b :2px   -2.3123  -0.0000  -0.0942  -0.0720
   2 F_b :2px    2.2515   0.0000   0.1592   0.0800
   3 F_b :2px    0.2498   0.0000   0.0530  -0.0276
   4 F_b :2px    0.0738  -0.0000   0.0035   0.0010
   6 F_b :2px    0.1401  -0.0000  -0.0174   0.0085
   8 F_b :3d1+   0.0151   0.0000   0.1939  -0.8196
   9 F_b :3d1+  -0.0343   0.0000  -0.2372   0.5255
  10 F_b :3d1+   0.0186  -0.0000   0.1288  -0.2159
  11 F_b :4f1+   0.0050  -0.0000   0.9092   0.1982
  12 F_b :4f3+  -0.0000   0.8685  -0.0000   0.0000
  13 F_b :4f1+  -0.1405  -0.0000  -0.5568  -0.0591
  14 F_b :4f3+   0.0000  -0.4087   0.0000  -0.0000

 Molecular orbitals for symmetry species 3  (B2u)
 ------------------------------------------------

    Orbital         1        2        3        4        5        6        7
   1 F_b :2py    0.6788   0.1837   0.1127   0.4451  -0.1738  -0.0000  -0.2634
   2 F_b :2py    0.0039  -0.0466   0.0190   0.3310   0.1084   0.0000   0.1235
   3 F_b :2py   -0.0220   0.1968   0.1248  -1.1615   0.1055   0.0000  -0.0565
   6 F_b :2py    0.0074  -0.6449  -0.0397   0.3745   0.0054   0.0000   0.0539
   8 F_b :3d1-  -0.0029  -0.0010   0.0314  -0.0037  -0.0002  -0.0000  -0.0108
   9 F_b :3d1-  -0.0123  -0.0023  -0.0634   0.0114  -0.7282   0.0000   0.5804
  10 F_b :3d1-  -0.0024   0.0013   0.6806  -0.1274   0.4778   0.0000  -0.3706
  11 F_b :4f3-  -0.0000  -0.0000  -0.0000  -0.0000   0.0000  -0.1102   0.0000
  12 F_b :4f1-   0.0027   0.0021  -0.0040  -0.0038  -0.0182   0.0000  -0.0817
  13 F_b :4f3-   0.0000   0.0000   0.0000   0.0000  -0.0000   0.7390  -0.0000
  14 F_b :4f1-   0.0051  -0.0034   0.0152   0.0264   0.2320   0.0000   0.6802

    Orbital         8        9       10       11
   1 F_b :2py   -2.3123   0.0000  -0.0942  -0.0720
   2 F_b :2py    2.2515  -0.0000   0.1592   0.0800
   3 F_b :2py    0.2498  -0.0000   0.0530  -0.0276
   4 F_b :2py    0.0738   0.0000   0.0035   0.0010
   6 F_b :2py    0.1401   0.0000  -0.0174   0.0085
   8 F_b :3d1-   0.0151  -0.0000   0.1939  -0.8196
   9 F_b :3d1-  -0.0343  -0.0000  -0.2372   0.5255
  10 F_b :3d1-   0.0186   0.0000   0.1288  -0.2159
  11 F_b :4f3-   0.0000   0.8685   0.0000  -0.0000
  12 F_b :4f1-   0.0050   0.0000   0.9092   0.1982
  13 F_b :4f3-  -0.0000  -0.4087  -0.0000   0.0000
  14 F_b :4f1-  -0.1405   0.0000  -0.5568  -0.0591

 Molecular orbitals for symmetry species 4  (B1g)
 ------------------------------------------------

    Orbital         1        2        3        4        5        6
   1 F_b :3d2-   0.0001   0.0037   0.0050  -0.0006  -0.0071  -0.7425
   2 F_b :3d2-  -0.0285  -0.0031   0.0028  -0.0736  -0.8408   0.2763
   3 F_b :3d2-   0.0743   0.5268   0.7129   0.0343   0.5683  -0.1339
   4 F_b :3d2-  -0.6450  -0.3416  -0.3054  -0.0421  -0.1936   0.0469
   5 F_b :4f2-   0.0031   0.0709  -0.0589   0.8698  -0.0846   0.0017
   6 F_b :4f2-  -0.0066  -0.5235   0.4185  -0.3973   0.0571  -0.0041

 Molecular orbitals for symmetry species 5  (B1u)
 ------------------------------------------------

    Orbital         1        2        3        4        5        6        7
   1 F_b :1s     0.7058  -0.0003   0.0014  -0.0364   0.1040  -0.0000   0.1669
   2 F_b :1s    -0.0050   0.7217  -0.2051  -0.2323   0.5270  -0.0000   0.5380
   3 F_b :1s     0.0020   0.0036  -0.0081   0.0340  -0.0920  -0.0000  -0.1906
   4 F_b :1s     0.0087   0.0366  -0.2375   0.3469  -1.1036   0.0000  -2.7532
   5 F_b :1s    -0.0008  -0.0007   0.0021  -0.0142   0.0399  -0.0000   0.0728
   6 F_b :1s     0.0001  -0.0000   0.0001  -0.0028   0.0086  -0.0000   0.0117
   7 F_b :1s     0.0020   0.0176  -1.6503   4.4644 -10.0006   0.0000  -4.5660
   8 F_b :2pz   -0.0014   0.0921   0.5519   0.4736   0.2286  -0.0000   0.2602
   9 F_b :2pz    0.0012  -0.0018   0.0082   0.0154  -0.0612   0.0000   0.0786
  10 F_b :2pz   -0.0045  -0.0374   0.3188  -0.5862   2.4087  -0.0000   2.5333
  13 F_b :2pz   -0.0004  -0.0014   0.9506  -2.1081   3.0413   0.0000   1.3776
  16 F_b :3d0   -0.0002  -0.0023   0.0034   0.0023   0.0089   0.0000  -0.0196
  17 F_b :3d2+  -0.0000  -0.0000   0.0000   0.0000  -0.0000   0.0314   0.0000
  18 F_b :3d0   -0.0003  -0.0046   0.0121   0.0127  -0.0492  -0.0000   0.0452
  19 F_b :3d2+   0.0000   0.0000  -0.0000  -0.0000   0.0000  -0.0964  -0.0000
  20 F_b :3d0    0.0018   0.0064  -0.0704   0.3249  -0.8071   0.0000  -1.7823
  21 F_b :3d2+  -0.0000  -0.0000   0.0000   0.0000  -0.0000   0.9465   0.0000
  22 F_b :4f0    0.0001   0.0011  -0.0004   0.0050  -0.0115  -0.0000  -0.0122
  24 F_b :4f0   -0.0001  -0.0005   0.0076  -0.0322   0.1011   0.0000   0.0854
  25 F_b :4f2+  -0.0000   0.0000   0.0000   0.0000   0.0000  -0.0109   0.0000

    Orbital         8        9       10       11       12
   1 F_b :1s    -0.2621   1.1883  -0.0000   0.0981  -0.0000
   2 F_b :1s    -0.8185   5.2411  -0.0000   0.4186  -0.0000
   3 F_b :1s     0.2649  -1.1951   0.0000  -0.1486   0.0000
   4 F_b :1s     4.5952 -11.6787  -0.0000   0.2945  -0.0000
   5 F_b :1s    -0.1074   0.4801  -0.0000   0.0470   0.0000
   6 F_b :1s    -0.0221   0.0890  -0.0000   0.0042  -0.0000
   7 F_b :1s     8.7164  -5.3548  -0.0000   1.2919   0.0000
   8 F_b :2pz    0.3387  -0.0457  -0.0000   0.2754   0.0000
   9 F_b :2pz    0.2782  -0.1441   0.0000  -0.3830  -0.0000
  10 F_b :2pz   -6.5375   7.8197   0.0000  -0.6236  -0.0000
  11 F_b :2pz    0.0033   0.0011   0.0000  -0.0122   0.0000
  13 F_b :2pz   -2.0781   1.2381   0.0000  -0.4216   0.0000
  16 F_b :3d0   -0.0273   0.0273   0.0000  -0.0167  -0.0000
  18 F_b :3d0    0.2169   0.0302  -0.0000  -0.5970  -0.0000
  19 F_b :3d2+   0.0000   0.0000  -0.9138  -0.0000   0.0499
  20 F_b :3d0    1.9973  -2.8825  -0.0000   0.7005  -0.0000
  21 F_b :3d2+  -0.0000  -0.0000   0.6411  -0.0000   0.2693
  22 F_b :4f0    0.0309  -0.0122  -0.0000   0.0621   0.0000
  23 F_b :4f2+  -0.0000   0.0000   0.0127  -0.0000   0.1188
  24 F_b :4f0   -0.2752   0.1870   0.0000  -0.6342   0.0000
  25 F_b :4f2+   0.0000  -0.0000  -0.0742   0.0000  -0.9856

 Molecular orbitals for symmetry species 6  (B2g)
 ------------------------------------------------

    Orbital         1        2        3        4        5        6        7
   1 F_b :2px    0.7428  -0.1445  -0.3349   0.2277   0.0795   0.0000  -0.6141
   2 F_b :2px    0.0010   0.0402  -0.1931   0.3578  -0.0149  -0.0000   0.6700
   3 F_b :2px    0.0070  -0.1689   0.4080  -2.2649  -0.9821  -0.0000  -1.6094
   4 F_b :2px    0.0003   0.0015  -0.0054   0.0085  -0.0025   0.0000   0.0196
   6 F_b :2px    0.0203   1.6708  -0.8899   0.0739  -0.2811  -0.0000   0.1083
   8 F_b :3d1+  -0.0002  -0.0012   0.0231   0.0151  -0.0210   0.0000   0.0178
   9 F_b :3d1+   0.0028   0.0181  -0.0800  -0.0824  -0.7997  -0.0000   0.5981
  10 F_b :3d1+  -0.0028  -0.0640   1.0096   1.7410   1.3500  -0.0000   1.2338
  11 F_b :4f1+   0.0012  -0.0006   0.0084   0.0291   0.0621  -0.0000   0.1399
  12 F_b :4f3+   0.0000  -0.0000  -0.0000   0.0000   0.0000  -0.1092  -0.0000
  13 F_b :4f1+  -0.0005   0.0015  -0.0470  -0.1498  -0.5176  -0.0000  -1.3440
  14 F_b :4f3+  -0.0000   0.0000   0.0000  -0.0000  -0.0000   0.7991   0.0000

    Orbital         8        9       10       11
   1 F_b :2px    2.2625   0.0000  -0.0305   0.1518
   2 F_b :2px   -2.1994  -0.0000   0.0053  -0.1595
   3 F_b :2px   -0.3583  -0.0000   0.8154  -0.2258
   4 F_b :2px   -0.0708   0.0000   0.0021  -0.0020
   6 F_b :2px   -0.2338  -0.0000   0.0372   0.1186
   8 F_b :3d1+   0.0378  -0.0000  -0.0264  -0.8804
   9 F_b :3d1+   0.2171  -0.0000  -0.1017   0.8208
  10 F_b :3d1+   0.0921  -0.0000  -0.7118  -0.1264
  11 F_b :4f1+   0.0321   0.0000  -0.9368   0.0824
  12 F_b :4f3+   0.0000  -0.8845  -0.0000   0.0000
  13 F_b :4f1+  -0.3706   0.0000   0.8317  -0.3318
  14 F_b :4f3+  -0.0000   0.4691   0.0000  -0.0000

 Molecular orbitals for symmetry species 7  (B3g)
 ------------------------------------------------

    Orbital         1        2        3        4        5        6        7
   1 F_b :2py    0.7428  -0.1445  -0.3349   0.2277   0.0795  -0.0000  -0.6141
   2 F_b :2py    0.0010   0.0402  -0.1931   0.3578  -0.0149   0.0000   0.6700
   3 F_b :2py    0.0070  -0.1689   0.4080  -2.2649  -0.9821   0.0000  -1.6094
   4 F_b :2py    0.0003   0.0015  -0.0054   0.0085  -0.0025  -0.0000   0.0196
   6 F_b :2py    0.0203   1.6708  -0.8899   0.0739  -0.2811   0.0000   0.1083
   8 F_b :3d1-  -0.0002  -0.0012   0.0231   0.0151  -0.0210  -0.0000   0.0178
   9 F_b :3d1-   0.0028   0.0181  -0.0800  -0.0824  -0.7997   0.0000   0.5981
  10 F_b :3d1-  -0.0028  -0.0640   1.0096   1.7410   1.3500   0.0000   1.2338
  11 F_b :4f3-  -0.0000   0.0000   0.0000  -0.0000  -0.0000  -0.1092   0.0000
  12 F_b :4f1-   0.0012  -0.0006   0.0084   0.0291   0.0621   0.0000   0.1399
  13 F_b :4f3-   0.0000  -0.0000  -0.0000   0.0000   0.0000   0.7991  -0.0000
  14 F_b :4f1-  -0.0005   0.0015  -0.0470  -0.1498  -0.5176   0.0000  -1.3440

    Orbital         8        9       10       11
   1 F_b :2py    2.2625  -0.0000  -0.0305   0.1518
   2 F_b :2py   -2.1994   0.0000   0.0053  -0.1595
   3 F_b :2py   -0.3583   0.0000   0.8154  -0.2258
   4 F_b :2py   -0.0708  -0.0000   0.0021  -0.0020
   6 F_b :2py   -0.2338   0.0000   0.0372   0.1186
   8 F_b :3d1-   0.0378   0.0000  -0.0264  -0.8804
   9 F_b :3d1-   0.2171   0.0000  -0.1017   0.8208
  10 F_b :3d1-   0.0921   0.0000  -0.7118  -0.1264
  11 F_b :4f3-  -0.0000  -0.8845   0.0000  -0.0000
  12 F_b :4f1-   0.0321  -0.0000  -0.9368   0.0824
  13 F_b :4f3-   0.0000   0.4691  -0.0000   0.0000
  14 F_b :4f1-  -0.3706  -0.0000   0.8317  -0.3318

 Molecular orbitals for symmetry species 8  (Au )
 ------------------------------------------------

    Orbital         1        2        3        4        5        6
   1 F_b :3d2-  -0.0002   0.0063  -0.0005   0.0002   0.0074   0.7428
   2 F_b :3d2-   0.0314   0.0064  -0.0060   0.0412   0.8502  -0.2802
   3 F_b :3d2-  -0.0964   0.9138  -0.0499  -0.0334  -0.6111   0.1437
   4 F_b :3d2-   0.9465  -0.6411  -0.2693  -0.1221   0.2803  -0.0658
   5 F_b :4f2-   0.0036  -0.0127  -0.1188  -0.9125   0.0394   0.0007
   6 F_b :4f2-  -0.0109   0.0742   0.9856   0.6137  -0.0109  -0.0029

  Total CPU  time used in SIRIUS :   1.08 seconds
  Total wall time used in SIRIUS :   1.09 seconds

 
     Date and time (Linux)  : Wed Jan 11 14:23:18 2023
     Host name              : cn040                                   


                     .---------------------------------------.
                     | End of Wave Function Section (SIRIUS) |
                     `---------------------------------------'



                 .------------------------------------------------.
                 | Starting in Dynamic Property Section (RESPONS) |
                 `------------------------------------------------'


 ----------------------------------------------------------------------------------------
  RESPONSE  -  an MCSCF, MC-srDFT, DFT, SOPPA and SOPPA-srDFT response property program
 ----------------------------------------------------------------------------------------


 -------- OUTPUT FROM RESPONSE INPUT PROCESSING --------




 Linear Response calculation
 ---------------------------

 Print level                                    : IPRLR  =   2
 Maximum number of iterations                   : MAXITL =  60
 Threshold for relative convergence             : THCLR  = 1.000D-03
 Maximum iterations in optimal orbital algorithm: MAXITO =   5

  9 B-frequencies  0.000000D+00  1.101744D-02  2.203487D-02  3.305231D-02  4.406975D-02
  5.508719D-02  6.610463D-02  7.712206D-02  8.813950D-02

    1 second order properties calculated with symmetry no.    2 and labels:

          XDIPLEN 

    1 second order properties calculated with symmetry no.    3 and labels:

          YDIPLEN 

    1 second order properties calculated with symmetry no.    5 and labels:

          ZDIPLEN 


   SCF energy         :     -198.755145322376279
 -- inactive part     :     -229.113144842644942
 -- nuclear repulsion :       30.357999520268653


                     ***************************************
                     *** RHF response calculation (TDHF) ***
                     ***************************************

 ----------------------------------------------------------------
 ----- Linear response calculation
 ----- Symmetry of excitation/property operator(s)    2  ( B3u)
 ----------------------------------------------------------------

 Number of excitations of this symmetry            0
 Number of response properties of this symmetry    1
 Number of C6/C8 properties of this symmetry       0


 Perturbation symmetry.     KSYMOP:           2
 Perturbation spin symmetry.TRPLET:           F
 Orbital variables.         KZWOPT:         122
 Configuration variables.   KZCONF:           0
 Total number of variables. KZVAR :         122


 RSPLR -- linear response calculation for symmetry 2  ( B3u)
 RSPLR -- operator label : XDIPLEN 
 RSPLR -- operator spin  :   0
 RSPLR -- frequencies    :     0.000000  0.011017  0.022035  0.033052  0.044070
                               0.055087  0.066105  0.077122  0.088139



 ---  SOLVING SETS OF LINEAR EQUATIONS FOR LINEAR RESPONSE PROPERTIES ---

 Operator symmetry = 2  ( B3u); triplet =   F

RSPORT:    2 out of    9 new trial vectors linear dependent

 ** RSPCTL MICROITERATION NUMBER    1

       No.  Residual tot.,    conf., and orb.    Bnorm      Frequency 
      ----------------------------------------------------------------
         1    6.54706D-01  0.00D+00  6.55D-01  1.46D+00    0.00000D+00
         2    6.54816D-01  0.00D+00  6.55D-01  1.46D+00    1.10174D-02
         3    6.55147D-01  0.00D+00  6.55D-01  1.46D+00    2.20349D-02
         4    6.55702D-01  0.00D+00  6.56D-01  1.46D+00    3.30523D-02
         5    6.56490D-01  0.00D+00  6.56D-01  1.47D+00    4.40697D-02
         6    6.57519D-01  0.00D+00  6.58D-01  1.47D+00    5.50872D-02
         7    6.58806D-01  0.00D+00  6.59D-01  1.47D+00    6.61046D-02
         8    6.60371D-01  0.00D+00  6.60D-01  1.48D+00    7.71221D-02
         9    6.62240D-01  0.00D+00  6.62D-01  1.48D+00    8.81395D-02

 ** RSPCTL MICROITERATION NUMBER    2

       No.  Residual tot.,    conf., and orb.    Bnorm      Frequency 
      ----------------------------------------------------------------
         1    5.65075D-02  0.00D+00  5.65D-02  1.49D+00    0.00000D+00
         2    5.65115D-02  0.00D+00  5.65D-02  1.49D+00    1.10174D-02
         3    5.65236D-02  0.00D+00  5.65D-02  1.49D+00    2.20349D-02
         4    5.65443D-02  0.00D+00  5.65D-02  1.49D+00    3.30523D-02
         5    5.65743D-02  0.00D+00  5.66D-02  1.50D+00    4.40697D-02
         6    5.66151D-02  0.00D+00  5.66D-02  1.50D+00    5.50872D-02
         7    5.66692D-02  0.00D+00  5.67D-02  1.51D+00    6.61046D-02
         8    5.67412D-02  0.00D+00  5.67D-02  1.51D+00    7.71221D-02
         9    5.68394D-02  0.00D+00  5.68D-02  1.52D+00    8.81395D-02

 ** RSPCTL MICROITERATION NUMBER    3

       No.  Residual tot.,    conf., and orb.    Bnorm      Frequency 
      ----------------------------------------------------------------
         1    2.30152D-03  0.00D+00  2.30D-03  1.49D+00    0.00000D+00
         2    2.30208D-03  0.00D+00  2.30D-03  1.49D+00    1.10174D-02
         3    2.30376D-03  0.00D+00  2.30D-03  1.49D+00    2.20349D-02
         4    2.30662D-03  0.00D+00  2.31D-03  1.49D+00    3.30523D-02
         5    2.31077D-03  0.00D+00  2.31D-03  1.50D+00    4.40697D-02
         6    2.31638D-03  0.00D+00  2.32D-03  1.50D+00    5.50872D-02
         7    2.32379D-03  0.00D+00  2.32D-03  1.51D+00    6.61046D-02
         8    2.33362D-03  0.00D+00  2.33D-03  1.51D+00    7.71221D-02
         9    2.34702D-03  0.00D+00  2.35D-03  1.52D+00    8.81395D-02
RSPORT:    1 out of    9 new trial vectors linear dependent

 ** RSPCTL MICROITERATION NUMBER    4

       No.  Residual tot.,    conf., and orb.    Bnorm      Frequency 
      ----------------------------------------------------------------
         1    1.10061D-04  0.00D+00  1.10D-04  1.49D+00    0.00000D+00
         2    1.10142D-04  0.00D+00  1.10D-04  1.49D+00    1.10174D-02
         3    1.10386D-04  0.00D+00  1.10D-04  1.49D+00    2.20349D-02
         4    1.10800D-04  0.00D+00  1.11D-04  1.49D+00    3.30523D-02
         5    1.11397D-04  0.00D+00  1.11D-04  1.50D+00    4.40697D-02
         6    1.12199D-04  0.00D+00  1.12D-04  1.50D+00    5.50872D-02
         7    1.13241D-04  0.00D+00  1.13D-04  1.51D+00    6.61046D-02
         8    1.14587D-04  0.00D+00  1.15D-04  1.51D+00    7.71221D-02
         9    1.16344D-04  0.00D+00  1.16D-04  1.52D+00    8.81395D-02

 *** THE REQUESTED    9 SOLUTION VECTORS CONVERGED

 Convergence of RSP solution vectors, threshold = 1.00D-03
 ---------------------------------------------------------------
 (dimension of paired reduced space:   66)
 RSP solution vector no.    1; norm of residual   7.38D-05
 RSP solution vector no.    2; norm of residual   7.39D-05
 RSP solution vector no.    3; norm of residual   7.40D-05
 RSP solution vector no.    4; norm of residual   7.41D-05
 RSP solution vector no.    5; norm of residual   7.44D-05
 RSP solution vector no.    6; norm of residual   7.47D-05
 RSP solution vector no.    7; norm of residual   7.52D-05
 RSP solution vector no.    8; norm of residual   7.58D-05
 RSP solution vector no.    9; norm of residual   7.66D-05

 *** RSPCTL MICROITERATIONS CONVERGED


           Final output of second order properties from linear response
           ------------------------------------------------------------


@ Spin symmetry of operators: singlet

 Note that minus the linear response function: - << A; B >>(omega) is printed.
 The results are of quadratic accuracy using Sellers formula.

@ FREQUENCY INDEPENDENT SECOND ORDER PROPERTIES

@ -<< XDIPLEN  ; XDIPLEN  >> =  5.389113466150E+00

@ FREQUENCY DEPENDENT SECOND ORDER PROPERTIES WITH FREQUENCY :

@    a.u.:  1.1017437D-02
@    cm-1:  2.4180480D+03
@    eV  :  2.9979972D-01
@  kJ/mol:  2.8926278D+01
@    nm  :  4.1355672D+03

@ -<< XDIPLEN  ; XDIPLEN  >> =  5.389743048834E+00

@ FREQUENCY DEPENDENT SECOND ORDER PROPERTIES WITH FREQUENCY :

@    a.u.:  2.2034875D-02
@    cm-1:  4.8360960D+03
@    eV  :  5.9959945D-01
@  kJ/mol:  5.7852555D+01
@    nm  :  2.0677836D+03

@ -<< XDIPLEN  ; XDIPLEN  >> =  5.391633956479E+00

@ FREQUENCY DEPENDENT SECOND ORDER PROPERTIES WITH FREQUENCY :

@    a.u.:  3.3052313D-02
@    cm-1:  7.2541440D+03
@    eV  :  8.9939917D-01
@  kJ/mol:  8.6778833D+01
@    nm  :  1.3785224D+03

@ -<< XDIPLEN  ; XDIPLEN  >> =  5.394792769655E+00

@ FREQUENCY DEPENDENT SECOND ORDER PROPERTIES WITH FREQUENCY :

@    a.u.:  4.4069750D-02
@    cm-1:  9.6721920D+03
@    eV  :  1.1991989D+00
@  kJ/mol:  1.1570511D+02
@    nm  :  1.0338918D+03

@ -<< XDIPLEN  ; XDIPLEN  >> =  5.399230816714E+00

@ FREQUENCY DEPENDENT SECOND ORDER PROPERTIES WITH FREQUENCY :

@    a.u.:  5.5087187D-02
@    cm-1:  1.2090240D+04
@    eV  :  1.4989986D+00
@  kJ/mol:  1.4463139D+02
@    nm  :  8.2711344D+02

@ -<< XDIPLEN  ; XDIPLEN  >> =  5.404964798090E+00

@ FREQUENCY DEPENDENT SECOND ORDER PROPERTIES WITH FREQUENCY :

@    a.u.:  6.6104625D-02
@    cm-1:  1.4508288D+04
@    eV  :  1.7987983D+00
@  kJ/mol:  1.7355767D+02
@    nm  :  6.8926120D+02

@ -<< XDIPLEN  ; XDIPLEN  >> =  5.412017861472E+00

@ FREQUENCY DEPENDENT SECOND ORDER PROPERTIES WITH FREQUENCY :

@    a.u.:  7.7122062D-02
@    cm-1:  1.6926336D+04
@    eV  :  2.0985981D+00
@  kJ/mol:  2.0248394D+02
@    nm  :  5.9079531D+02

@ -<< XDIPLEN  ; XDIPLEN  >> =  5.420421432576E+00

@ FREQUENCY DEPENDENT SECOND ORDER PROPERTIES WITH FREQUENCY :

@    a.u.:  8.8139500D-02
@    cm-1:  1.9344384D+04
@    eV  :  2.3983978D+00
@  kJ/mol:  2.3141022D+02
@    nm  :  5.1694590D+02

@ -<< XDIPLEN  ; XDIPLEN  >> =  5.430218420840E+00


 Time used in linear response calculation is      1.38 CPU seconds for symmetry 2
 ----------------------------------------------------------------
 ----- Linear response calculation
 ----- Symmetry of excitation/property operator(s)    3  ( B2u)
 ----------------------------------------------------------------

 Number of excitations of this symmetry            0
 Number of response properties of this symmetry    1
 Number of C6/C8 properties of this symmetry       0


 Perturbation symmetry.     KSYMOP:           3
 Perturbation spin symmetry.TRPLET:           F
 Orbital variables.         KZWOPT:         122
 Configuration variables.   KZCONF:           0
 Total number of variables. KZVAR :         122


 RSPLR -- linear response calculation for symmetry 3  ( B2u)
 RSPLR -- operator label : YDIPLEN 
 RSPLR -- operator spin  :   0
 RSPLR -- frequencies    :     0.000000  0.011017  0.022035  0.033052  0.044070
                               0.055087  0.066105  0.077122  0.088139



 ---  SOLVING SETS OF LINEAR EQUATIONS FOR LINEAR RESPONSE PROPERTIES ---

 Operator symmetry = 3  ( B2u); triplet =   F

RSPORT:    2 out of    9 new trial vectors linear dependent

 ** RSPCTL MICROITERATION NUMBER    1

       No.  Residual tot.,    conf., and orb.    Bnorm      Frequency 
      ----------------------------------------------------------------
         1    6.18840D-01  0.00D+00  6.19D-01  1.47D+00    0.00000D+00
         2    6.18946D-01  0.00D+00  6.19D-01  1.47D+00    1.10174D-02
         3    6.19265D-01  0.00D+00  6.19D-01  1.47D+00    2.20349D-02
         4    6.19803D-01  0.00D+00  6.20D-01  1.47D+00    3.30523D-02
         5    6.20567D-01  0.00D+00  6.21D-01  1.47D+00    4.40697D-02
         6    6.21570D-01  0.00D+00  6.22D-01  1.48D+00    5.50872D-02
         7    6.22828D-01  0.00D+00  6.23D-01  1.48D+00    6.61046D-02
         8    6.24368D-01  0.00D+00  6.24D-01  1.49D+00    7.71221D-02
         9    6.26223D-01  0.00D+00  6.26D-01  1.49D+00    8.81395D-02

 ** RSPCTL MICROITERATION NUMBER    2

       No.  Residual tot.,    conf., and orb.    Bnorm      Frequency 
      ----------------------------------------------------------------
         1    4.47116D-02  0.00D+00  4.47D-02  1.49D+00    0.00000D+00
         2    4.47098D-02  0.00D+00  4.47D-02  1.49D+00    1.10174D-02
         3    4.47040D-02  0.00D+00  4.47D-02  1.49D+00    2.20349D-02
         4    4.46938D-02  0.00D+00  4.47D-02  1.49D+00    3.30523D-02
         5    4.46778D-02  0.00D+00  4.47D-02  1.50D+00    4.40697D-02
         6    4.46545D-02  0.00D+00  4.47D-02  1.50D+00    5.50872D-02
         7    4.46219D-02  0.00D+00  4.46D-02  1.51D+00    6.61046D-02
         8    4.45781D-02  0.00D+00  4.46D-02  1.51D+00    7.71221D-02
         9    4.45223D-02  0.00D+00  4.45D-02  1.52D+00    8.81395D-02

 ** RSPCTL MICROITERATION NUMBER    3

       No.  Residual tot.,    conf., and orb.    Bnorm      Frequency 
      ----------------------------------------------------------------
         1    2.08292D-03  0.00D+00  2.08D-03  1.49D+00    0.00000D+00
         2    2.08357D-03  0.00D+00  2.08D-03  1.49D+00    1.10174D-02
         3    2.08553D-03  0.00D+00  2.09D-03  1.49D+00    2.20349D-02
         4    2.08875D-03  0.00D+00  2.09D-03  1.49D+00    3.30523D-02
         5    2.09317D-03  0.00D+00  2.09D-03  1.50D+00    4.40697D-02
         6    2.09874D-03  0.00D+00  2.10D-03  1.50D+00    5.50872D-02
         7    2.10542D-03  0.00D+00  2.11D-03  1.51D+00    6.61046D-02
         8    2.11333D-03  0.00D+00  2.11D-03  1.51D+00    7.71221D-02
         9    2.12288D-03  0.00D+00  2.12D-03  1.52D+00    8.81395D-02

 ** RSPCTL MICROITERATION NUMBER    4

       No.  Residual tot.,    conf., and orb.    Bnorm      Frequency 
      ----------------------------------------------------------------
         1    1.15852D-04  0.00D+00  1.16D-04  1.49D+00    0.00000D+00
         2    1.15918D-04  0.00D+00  1.16D-04  1.49D+00    1.10174D-02
         3    1.16115D-04  0.00D+00  1.16D-04  1.49D+00    2.20349D-02
         4    1.16448D-04  0.00D+00  1.16D-04  1.49D+00    3.30523D-02
         5    1.16921D-04  0.00D+00  1.17D-04  1.50D+00    4.40697D-02
         6    1.17545D-04  0.00D+00  1.18D-04  1.50D+00    5.50872D-02
         7    1.18338D-04  0.00D+00  1.18D-04  1.51D+00    6.61046D-02
         8    1.19333D-04  0.00D+00  1.19D-04  1.51D+00    7.71221D-02
         9    1.20592D-04  0.00D+00  1.21D-04  1.52D+00    8.81395D-02

 *** THE REQUESTED    9 SOLUTION VECTORS CONVERGED

 Convergence of RSP solution vectors, threshold = 1.00D-03
 ---------------------------------------------------------------
 (dimension of paired reduced space:   68)
 RSP solution vector no.    1; norm of residual   7.77D-05
 RSP solution vector no.    2; norm of residual   7.77D-05
 RSP solution vector no.    3; norm of residual   7.78D-05
 RSP solution vector no.    4; norm of residual   7.79D-05
 RSP solution vector no.    5; norm of residual   7.81D-05
 RSP solution vector no.    6; norm of residual   7.83D-05
 RSP solution vector no.    7; norm of residual   7.86D-05
 RSP solution vector no.    8; norm of residual   7.89D-05
 RSP solution vector no.    9; norm of residual   7.94D-05

 *** RSPCTL MICROITERATIONS CONVERGED


           Final output of second order properties from linear response
           ------------------------------------------------------------


@ Spin symmetry of operators: singlet

 Note that minus the linear response function: - << A; B >>(omega) is printed.
 The results are of quadratic accuracy using Sellers formula.

@ FREQUENCY INDEPENDENT SECOND ORDER PROPERTIES

@ -<< YDIPLEN  ; YDIPLEN  >> =  5.389113466466E+00

@ FREQUENCY DEPENDENT SECOND ORDER PROPERTIES WITH FREQUENCY :

@    a.u.:  1.1017437D-02
@    cm-1:  2.4180480D+03
@    eV  :  2.9979972D-01
@  kJ/mol:  2.8926278D+01
@    nm  :  4.1355672D+03

@ -<< YDIPLEN  ; YDIPLEN  >> =  5.389743049151E+00

@ FREQUENCY DEPENDENT SECOND ORDER PROPERTIES WITH FREQUENCY :

@    a.u.:  2.2034875D-02
@    cm-1:  4.8360960D+03
@    eV  :  5.9959945D-01
@  kJ/mol:  5.7852555D+01
@    nm  :  2.0677836D+03

@ -<< YDIPLEN  ; YDIPLEN  >> =  5.391633956797E+00

@ FREQUENCY DEPENDENT SECOND ORDER PROPERTIES WITH FREQUENCY :

@    a.u.:  3.3052313D-02
@    cm-1:  7.2541440D+03
@    eV  :  8.9939917D-01
@  kJ/mol:  8.6778833D+01
@    nm  :  1.3785224D+03

@ -<< YDIPLEN  ; YDIPLEN  >> =  5.394792769976E+00

@ FREQUENCY DEPENDENT SECOND ORDER PROPERTIES WITH FREQUENCY :

@    a.u.:  4.4069750D-02
@    cm-1:  9.6721920D+03
@    eV  :  1.1991989D+00
@  kJ/mol:  1.1570511D+02
@    nm  :  1.0338918D+03

@ -<< YDIPLEN  ; YDIPLEN  >> =  5.399230817039E+00

@ FREQUENCY DEPENDENT SECOND ORDER PROPERTIES WITH FREQUENCY :

@    a.u.:  5.5087187D-02
@    cm-1:  1.2090240D+04
@    eV  :  1.4989986D+00
@  kJ/mol:  1.4463139D+02
@    nm  :  8.2711344D+02

@ -<< YDIPLEN  ; YDIPLEN  >> =  5.404964798421E+00

@ FREQUENCY DEPENDENT SECOND ORDER PROPERTIES WITH FREQUENCY :

@    a.u.:  6.6104625D-02
@    cm-1:  1.4508288D+04
@    eV  :  1.7987983D+00
@  kJ/mol:  1.7355767D+02
@    nm  :  6.8926120D+02

@ -<< YDIPLEN  ; YDIPLEN  >> =  5.412017861810E+00

@ FREQUENCY DEPENDENT SECOND ORDER PROPERTIES WITH FREQUENCY :

@    a.u.:  7.7122062D-02
@    cm-1:  1.6926336D+04
@    eV  :  2.0985981D+00
@  kJ/mol:  2.0248394D+02
@    nm  :  5.9079531D+02

@ -<< YDIPLEN  ; YDIPLEN  >> =  5.420421432923E+00

@ FREQUENCY DEPENDENT SECOND ORDER PROPERTIES WITH FREQUENCY :

@    a.u.:  8.8139500D-02
@    cm-1:  1.9344384D+04
@    eV  :  2.3983978D+00
@  kJ/mol:  2.3141022D+02
@    nm  :  5.1694590D+02

@ -<< YDIPLEN  ; YDIPLEN  >> =  5.430218421198E+00


 Time used in linear response calculation is      1.44 CPU seconds for symmetry 3
 ----------------------------------------------------------------
 ----- Linear response calculation
 ----- Symmetry of excitation/property operator(s)    5  ( B1u)
 ----------------------------------------------------------------

 Number of excitations of this symmetry            0
 Number of response properties of this symmetry    1
 Number of C6/C8 properties of this symmetry       0


 Perturbation symmetry.     KSYMOP:           5
 Perturbation spin symmetry.TRPLET:           F
 Orbital variables.         KZWOPT:         165
 Configuration variables.   KZCONF:           0
 Total number of variables. KZVAR :         165


 RSPLR -- linear response calculation for symmetry 5  ( B1u)
 RSPLR -- operator label : ZDIPLEN 
 RSPLR -- operator spin  :   0
 RSPLR -- frequencies    :     0.000000  0.011017  0.022035  0.033052  0.044070
                               0.055087  0.066105  0.077122  0.088139



 ---  SOLVING SETS OF LINEAR EQUATIONS FOR LINEAR RESPONSE PROPERTIES ---

 Operator symmetry = 5  ( B1u); triplet =   F

RSPORT:    2 out of    9 new trial vectors linear dependent

 ** RSPCTL MICROITERATION NUMBER    1

       No.  Residual tot.,    conf., and orb.    Bnorm      Frequency 
      ----------------------------------------------------------------
         1    3.67402D+00  0.00D+00  3.67D+00  2.40D+00    0.00000D+00
         2    3.67535D+00  0.00D+00  3.68D+00  2.41D+00    1.10174D-02
         3    3.67934D+00  0.00D+00  3.68D+00  2.41D+00    2.20349D-02
         4    3.68602D+00  0.00D+00  3.69D+00  2.42D+00    3.30523D-02
         5    3.69542D+00  0.00D+00  3.70D+00  2.43D+00    4.40697D-02
         6    3.70756D+00  0.00D+00  3.71D+00  2.44D+00    5.50872D-02
         7    3.72251D+00  0.00D+00  3.72D+00  2.46D+00    6.61046D-02
         8    3.74034D+00  0.00D+00  3.74D+00  2.48D+00    7.71221D-02
         9    3.76113D+00  0.00D+00  3.76D+00  2.50D+00    8.81395D-02

 ** RSPCTL MICROITERATION NUMBER    2

       No.  Residual tot.,    conf., and orb.    Bnorm      Frequency 
      ----------------------------------------------------------------
         1    9.89445D-01  0.00D+00  9.89D-01  3.35D+00    0.00000D+00
         2    9.90039D-01  0.00D+00  9.90D-01  3.35D+00    1.10174D-02
         3    9.91826D-01  0.00D+00  9.92D-01  3.36D+00    2.20349D-02
         4    9.94817D-01  0.00D+00  9.95D-01  3.37D+00    3.30523D-02
         5    9.99032D-01  0.00D+00  9.99D-01  3.39D+00    4.40697D-02
         6    1.00450D+00  0.00D+00  1.00D+00  3.41D+00    5.50872D-02
         7    1.01126D+00  0.00D+00  1.01D+00  3.44D+00    6.61046D-02
         8    1.01936D+00  0.00D+00  1.02D+00  3.48D+00    7.71221D-02
         9    1.02885D+00  0.00D+00  1.03D+00  3.52D+00    8.81395D-02

 ** RSPCTL MICROITERATION NUMBER    3

       No.  Residual tot.,    conf., and orb.    Bnorm      Frequency 
      ----------------------------------------------------------------
         1    9.89475D-02  0.00D+00  9.89D-02  3.40D+00    0.00000D+00
         2    9.90138D-02  0.00D+00  9.90D-02  3.40D+00    1.10174D-02
         3    9.92133D-02  0.00D+00  9.92D-02  3.41D+00    2.20349D-02
         4    9.95474D-02  0.00D+00  9.95D-02  3.42D+00    3.30523D-02
         5    1.00018D-01  0.00D+00  1.00D-01  3.44D+00    4.40697D-02
         6    1.00630D-01  0.00D+00  1.01D-01  3.47D+00    5.50872D-02
         7    1.01385D-01  0.00D+00  1.01D-01  3.50D+00    6.61046D-02
         8    1.02291D-01  0.00D+00  1.02D-01  3.53D+00    7.71221D-02
         9    1.03354D-01  0.00D+00  1.03D-01  3.58D+00    8.81395D-02
RSPORT:    1 out of    9 new trial vectors linear dependent

 ** RSPCTL MICROITERATION NUMBER    4

       No.  Residual tot.,    conf., and orb.    Bnorm      Frequency 
      ----------------------------------------------------------------
         1    5.74964D-03  0.00D+00  5.75D-03  3.40D+00    0.00000D+00
         2    5.75456D-03  0.00D+00  5.75D-03  3.40D+00    1.10174D-02
         3    5.76936D-03  0.00D+00  5.77D-03  3.41D+00    2.20349D-02
         4    5.79416D-03  0.00D+00  5.79D-03  3.42D+00    3.30523D-02
         5    5.82917D-03  0.00D+00  5.83D-03  3.44D+00    4.40697D-02
         6    5.87470D-03  0.00D+00  5.87D-03  3.47D+00    5.50872D-02
         7    5.93113D-03  0.00D+00  5.93D-03  3.50D+00    6.61046D-02
         8    5.99895D-03  0.00D+00  6.00D-03  3.53D+00    7.71221D-02
         9    6.07879D-03  0.00D+00  6.08D-03  3.58D+00    8.81395D-02
RSPORT:    2 out of    9 new trial vectors linear dependent

 ** RSPCTL MICROITERATION NUMBER    5

       No.  Residual tot.,    conf., and orb.    Bnorm      Frequency 
      ----------------------------------------------------------------
         1    3.06186D-04  0.00D+00  3.06D-04  3.40D+00    0.00000D+00
         2    3.06528D-04  0.00D+00  3.07D-04  3.40D+00    1.10174D-02
         3    3.07559D-04  0.00D+00  3.08D-04  3.41D+00    2.20349D-02
         4    3.09288D-04  0.00D+00  3.09D-04  3.42D+00    3.30523D-02
         5    3.11730D-04  0.00D+00  3.12D-04  3.44D+00    4.40697D-02
         6    3.14906D-04  0.00D+00  3.15D-04  3.47D+00    5.50872D-02
         7    3.18847D-04  0.00D+00  3.19D-04  3.50D+00    6.61046D-02
         8    3.23589D-04  0.00D+00  3.24D-04  3.53D+00    7.71221D-02
         9    3.29176D-04  0.00D+00  3.29D-04  3.58D+00    8.81395D-02

 *** THE REQUESTED    9 SOLUTION VECTORS CONVERGED

 Convergence of RSP solution vectors, threshold = 1.00D-03
 ---------------------------------------------------------------
 (dimension of paired reduced space:   80)
 RSP solution vector no.    1; norm of residual   9.01D-05
 RSP solution vector no.    2; norm of residual   9.01D-05
 RSP solution vector no.    3; norm of residual   9.02D-05
 RSP solution vector no.    4; norm of residual   9.04D-05
 RSP solution vector no.    5; norm of residual   9.06D-05
 RSP solution vector no.    6; norm of residual   9.08D-05
 RSP solution vector no.    7; norm of residual   9.12D-05
 RSP solution vector no.    8; norm of residual   9.16D-05
 RSP solution vector no.    9; norm of residual   9.20D-05

 *** RSPCTL MICROITERATIONS CONVERGED


           Final output of second order properties from linear response
           ------------------------------------------------------------


@ Spin symmetry of operators: singlet

 Note that minus the linear response function: - << A; B >>(omega) is printed.
 The results are of quadratic accuracy using Sellers formula.

@ FREQUENCY INDEPENDENT SECOND ORDER PROPERTIES

@ -<< ZDIPLEN  ; ZDIPLEN  >> =  1.447940078294E+01

@ FREQUENCY DEPENDENT SECOND ORDER PROPERTIES WITH FREQUENCY :

@    a.u.:  1.1017437D-02
@    cm-1:  2.4180480D+03
@    eV  :  2.9979972D-01
@  kJ/mol:  2.8926278D+01
@    nm  :  4.1355672D+03

@ -<< ZDIPLEN  ; ZDIPLEN  >> =  1.448542291746E+01

@ FREQUENCY DEPENDENT SECOND ORDER PROPERTIES WITH FREQUENCY :

@    a.u.:  2.2034875D-02
@    cm-1:  4.8360960D+03
@    eV  :  5.9959945D-01
@  kJ/mol:  5.7852555D+01
@    nm  :  2.0677836D+03

@ -<< ZDIPLEN  ; ZDIPLEN  >> =  1.450352713633E+01

@ FREQUENCY DEPENDENT SECOND ORDER PROPERTIES WITH FREQUENCY :

@    a.u.:  3.3052313D-02
@    cm-1:  7.2541440D+03
@    eV  :  8.9939917D-01
@  kJ/mol:  8.6778833D+01
@    nm  :  1.3785224D+03

@ -<< ZDIPLEN  ; ZDIPLEN  >> =  1.453382750383E+01

@ FREQUENCY DEPENDENT SECOND ORDER PROPERTIES WITH FREQUENCY :

@    a.u.:  4.4069750D-02
@    cm-1:  9.6721920D+03
@    eV  :  1.1991989D+00
@  kJ/mol:  1.1570511D+02
@    nm  :  1.0338918D+03

@ -<< ZDIPLEN  ; ZDIPLEN  >> =  1.457651620711E+01

@ FREQUENCY DEPENDENT SECOND ORDER PROPERTIES WITH FREQUENCY :

@    a.u.:  5.5087187D-02
@    cm-1:  1.2090240D+04
@    eV  :  1.4989986D+00
@  kJ/mol:  1.4463139D+02
@    nm  :  8.2711344D+02

@ -<< ZDIPLEN  ; ZDIPLEN  >> =  1.463186674395E+01

@ FREQUENCY DEPENDENT SECOND ORDER PROPERTIES WITH FREQUENCY :

@    a.u.:  6.6104625D-02
@    cm-1:  1.4508288D+04
@    eV  :  1.7987983D+00
@  kJ/mol:  1.7355767D+02
@    nm  :  6.8926120D+02

@ -<< ZDIPLEN  ; ZDIPLEN  >> =  1.470023852473E+01

@ FREQUENCY DEPENDENT SECOND ORDER PROPERTIES WITH FREQUENCY :

@    a.u.:  7.7122062D-02
@    cm-1:  1.6926336D+04
@    eV  :  2.0985981D+00
@  kJ/mol:  2.0248394D+02
@    nm  :  5.9079531D+02

@ -<< ZDIPLEN  ; ZDIPLEN  >> =  1.478208303603E+01

@ FREQUENCY DEPENDENT SECOND ORDER PROPERTIES WITH FREQUENCY :

@    a.u.:  8.8139500D-02
@    cm-1:  1.9344384D+04
@    eV  :  2.3983978D+00
@  kJ/mol:  2.3141022D+02
@    nm  :  5.1694590D+02

@ -<< ZDIPLEN  ; ZDIPLEN  >> =  1.487795176824E+01


 Time used in linear response calculation is      1.70 CPU seconds for symmetry 5

  Total CPU  time used in RESPONSE:   4.52 seconds
  Total wall time used in RESPONSE:   4.53 seconds


                   .-------------------------------------------.
                   | End of Dynamic Property Section (RESPONS) |
                   `-------------------------------------------'

  Total CPU  time used in DALTON:   5.72 seconds
  Total wall time used in DALTON:   5.77 seconds

 
     Date and time (Linux)  : Wed Jan 11 14:23:23 2023
     Host name              : cn040                                   
