

     ************************************************************************
     *************** Dalton - An Electronic Structure Program ***************
     ************************************************************************

    This is output from DALTON release Dalton2020.0 (2020)
         ( Web site: http://daltonprogram.org )

   ----------------------------------------------------------------------------

    NOTE:
     
    Dalton is an experimental code for the evaluation of molecular
    properties using (MC)SCF, DFT, CI, and CC wave functions.
    The authors accept no responsibility for the performance of
    the code or for the correctness of the results.
     
    The code (in whole or part) is provided under a licence and
    is not to be reproduced for further distribution without
    the written permission of the authors or their representatives.
     
    See the home page "http://daltonprogram.org" for further information.
     
    If results obtained with this code are published,
    the appropriate citations would be both of:
     
       K. Aidas, C. Angeli, K. L. Bak, V. Bakken, R. Bast,
       L. Boman, O. Christiansen, R. Cimiraglia, S. Coriani,
       P. Dahle, E. K. Dalskov, U. Ekstroem,
       T. Enevoldsen, J. J. Eriksen, P. Ettenhuber, B. Fernandez,
       L. Ferrighi, H. Fliegl, L. Frediani, K. Hald, A. Halkier,
       C. Haettig, H. Heiberg, T. Helgaker, A. C. Hennum,
       H. Hettema, E. Hjertenaes, S. Hoest, I.-M. Hoeyvik,
       M. F. Iozzi, B. Jansik, H. J. Aa. Jensen, D. Jonsson,
       P. Joergensen, J. Kauczor, S. Kirpekar,
       T. Kjaergaard, W. Klopper, S. Knecht, R. Kobayashi, H. Koch,
       J. Kongsted, A. Krapp, K. Kristensen, A. Ligabue,
       O. B. Lutnaes, J. I. Melo, K. V. Mikkelsen, R. H. Myhre,
       C. Neiss, C. B. Nielsen, P. Norman, J. Olsen,
       J. M. H. Olsen, A. Osted, M. J. Packer, F. Pawlowski,
       T. B. Pedersen, P. F. Provasi, S. Reine, Z. Rinkevicius,
       T. A. Ruden, K. Ruud, V. Rybkin, P. Salek, C. C. M. Samson,
       A. Sanchez de Meras, T. Saue, S. P. A. Sauer,
       B. Schimmelpfennig, K. Sneskov, A. H. Steindal,
       K. O. Sylvester-Hvid, P. R. Taylor, A. M. Teale,
       E. I. Tellgren, D. P. Tew, A. J. Thorvaldsen, L. Thoegersen,
       O. Vahtras, M. A. Watson, D. J. D. Wilson, M. Ziolkowski
       and H. Agren,
       "The Dalton quantum chemistry program system",
       WIREs Comput. Mol. Sci. 2014, 4:269–284 (doi: 10.1002/wcms.1172)
     
    and
     
       Dalton, a molecular electronic structure program,
       Release Dalton2020.0 (2020), see http://daltonprogram.org
   ----------------------------------------------------------------------------

    Authors in alphabetical order (Major contribution(s) in parenthesis):

  Kestutis Aidas,           Vilnius University,           Lithuania   (QM/MM)
  Celestino Angeli,         University of Ferrara,        Italy       (NEVPT2)
  Keld L. Bak,              UNI-C,                        Denmark     (AOSOPPA, non-adiabatic coupling, magnetic properties)
  Vebjoern Bakken,          University of Oslo,           Norway      (DALTON; geometry optimizer, symmetry detection)
  Radovan Bast,             UiT The Arctic U. of Norway,  Norway      (DALTON installation and execution frameworks)
  Pablo Baudin,             University of Valencia,       Spain       (Cholesky excitation energies)
  Linus Boman,              NTNU,                         Norway      (Cholesky decomposition and subsystems)
  Bruno N. Cabral Tenorio,  Technical Univ. of Denmark,   Denmark     (Lanczos-based CC methods)
  Ove Christiansen,         Aarhus University,            Denmark     (CC module)
  Renzo Cimiraglia,         University of Ferrara,        Italy       (NEVPT2)
  Sonia Coriani,            Technical Univ. of Denmark,   Denmark     (CC and RESPONS modules)
  Janusz Cukras,            University of Warsaw,         Poland      (MChD in RESPONS)
  Paal Dahle,               University of Oslo,           Norway      (Parallelization)
  Erik K. Dalskov,          UNI-C,                        Denmark     (SOPPA)
  Thomas Enevoldsen,        Univ. of Southern Denmark,    Denmark     (SOPPA)
  Janus J. Eriksen,         Aarhus University,            Denmark     (Polarizable embedding, TDA)
  Rasmus Faber,             Technical Univ. of Denmark,   Denmark     (Vib.avg. NMR w. SOPPA, parallel AO-SOPPA, CVS-CC and EOMCC)
  Tobias Fahleson,          KTH Stockholm,                Sweden      (Damped cubic response)
  Berta Fernandez,          U. of Santiago de Compostela, Spain       (Doublet spin, ESR in RESPONS)
  Lara Ferrighi,            Aarhus University,            Denmark     (PCM Cubic response)
  Heike Fliegl,             University of Oslo,           Norway      (CCSD(R12))
  Luca Frediani,            UiT The Arctic U. of Norway,  Norway      (PCM)
  Emmanuel Fromager,        Univ. Strasbourg,             France      (MC-srDFT)
  Bin Gao,                  UiT The Arctic U. of Norway,  Norway      (Gen1Int library)
  Andre S. P. Gomes,        CNRS/Universite de Lille,     France      (Frozen density embedding)
  Christof Haettig,         Ruhr-University Bochum,       Germany     (CC module)
  Kasper Hald,              Aarhus University,            Denmark     (CC module)
  Asger Halkier,            Aarhus University,            Denmark     (CC module)
  Frederik Beyer Hansen,    University of Copenhagen,     Denmark     (Parallel AO-SOPPA)
  Erik D. Hedegaard,        Univ. of Southern Denmark,    Denmark     (Polarizable embedding, QM/MM, and MC-srDFT)
  Hanne Heiberg,            University of Oslo,           Norway      (Geometry analysis, selected one-electron integrals)
  Trygve Helgaker,          University of Oslo,           Norway      (DALTON; ABACUS, ERI, DFT modules, London, and much more)
  Alf Christian Hennum,     University of Oslo,           Norway      (Parity violation)
  Hinne Hettema,            University of Auckland,       New Zealand (Quadratic response in RESPONS; SIRIUS supersymmetry)
  Eirik Hjertenaes,         NTNU,                         Norway      (Cholesky decomposition)
  Pi A. B. Haase,           University of Copenhagen,     Denmark     (Triplet AO-SOPPA)
  Maria Francesca Iozzi,    University of Oslo,           Norway      (RPA)
  Christoph Jacob           TU Braunschweig               Germany     (Frozen density embedding)
  Brano Jansik              Technical Univ. of Ostrava    Czech Rep.  (DFT cubic response)
  Hans Joergen Aa. Jensen,  Univ. of Southern Denmark,    Denmark     (DALTON; SIRIUS, RESPONS, ABACUS, MC-srDFT, and much more)
  Dan Jonsson,              UiT The Arctic U. of Norway,  Norway      (Cubic response in RESPONS module)
  Poul Joergensen,          Aarhus University,            Denmark     (RESPONS, ABACUS, and CC modules)
  Maciej Kaminski,          University of Warsaw,         Poland      (CPPh in RESPONS)
  Joanna Kauczor,           Linkoeping University,        Sweden      (Complex polarization propagator (CPP) module)
  Sheela Kirpekar,          Univ. of Southern Denmark,    Denmark     (Mass-velocity & Darwin integrals)
  Erik Kjellgren,           Univ. of Southern Denmark,    Denmark     (MC-srDFT)
  Wim Klopper,              KIT Karlsruhe,                Germany     (R12 code in CC, SIRIUS, and ABACUS modules)
  Stefan Knecht,            ETH Zurich,                   Switzerland (Parallel CI and MCSCF, MC-srDFT)
  Rika Kobayashi,           Australian National Univ.,    Australia   (DIIS in CC, London in MCSCF)
  Henrik Koch,              NTNU,                         Norway      (CC module, Cholesky decomposition)
  Jacob Kongsted,           Univ. of Southern Denmark,    Denmark     (Polarizable embedding, polarizable density embedding, QM/MM)
  Andrea Ligabue,           University of Modena,         Italy       (CTOCD, AOSOPPA)
  Nanna H. List             Univ. of Southern Denmark,    Denmark     (Polarizable embedding)
  Ola B. Lutnaes,           University of Oslo,           Norway      (DFT Hessian)
  Juan I. Melo,             University of Buenos Aires,   Argentina   (LRESC, Relativistic Effects on NMR Shieldings)
  Kurt V. Mikkelsen,        University of Copenhagen,     Denmark     (MC-SCRF and QM/MM)
  Rolf H. Myhre,            NTNU,                         Norway      (Subsystems and CC3)
  Christian Neiss,          Univ. Erlangen-Nuernberg,     Germany     (CCSD(R12))
  Christian B. Nielsen,     University of Copenhagen,     Denmark     (QM/MM)
  Patrick Norman,           KTH Stockholm,                Sweden      (Cubic response and complex frequency response in RESPONS)
  Jeppe Olsen,              Aarhus University,            Denmark     (SIRIUS CI/density modules)
  Jogvan Magnus H. Olsen,   Aarhus University,            Denmark     (Polarizable embedding and polarizable density embedding)
  Anders Osted,             Copenhagen University,        Denmark     (QM/MM)
  Martin J. Packer,         University of Sheffield,      UK          (SOPPA)
  Filip Pawlowski,          Kazimierz Wielki University,  Poland      (CC3)
  Morten N. Pedersen,       Univ. of Southern Denmark,    Denmark     (Polarizable embedding)
  Thomas B. Pedersen,       University of Oslo,           Norway      (Cholesky decomposition)
  Patricio F. Provasi,      University of Northeastern,   Argentina   (Analysis of coupling constants in localized orbitals)
  Peter Reinholdt,          Univ. of Southern Denmark,    Denmark     (Polarizable embedding and polarizable density embedding)
  Zilvinas Rinkevicius,     KTH Stockholm,                Sweden      (open-shell DFT, ESR)
  Elias Rudberg,            KTH Stockholm,                Sweden      (DFT grid and basis info)
  Torgeir A. Ruden,         University of Oslo,           Norway      (Numerical derivatives in ABACUS)
  Kenneth Ruud,             UiT The Arctic U. of Norway,  Norway      (DALTON; ABACUS magnetic properties and much more)
  Pawel Salek,              KTH Stockholm,                Sweden      (DALTON; DFT code)
  Claire C. M. Samson       University of Karlsruhe       Germany     (Boys localization, r12 integrals in ERI)
  Alfredo Sanchez de Meras, University of Valencia,       Spain       (CC module, Cholesky decomposition)
  Trond Saue,               Paul Sabatier University,     France      (direct Fock matrix construction)
  Stephan P. A. Sauer,      University of Copenhagen,     Denmark     (SOPPA(CCSD), SOPPA prop., AOSOPPA, vibrational g-factors)
  Bernd Schimmelpfennig,    Forschungszentrum Karlsruhe,  Germany     (AMFI module)
  Anna K. Schnack-Petersen, University of Copenhagen,     Denmark     (RPA(D) and HRPA(D) properties in AOSOPPA)
  Kristian Sneskov,         Aarhus University,            Denmark     (Polarizable embedding, QM/MM)
  Arnfinn H. Steindal,      UiT The Arctic U. of Norway,  Norway      (parallel QM/MM, polarizable embedding)
  Casper Steinmann,         Aalborg University,           Denmark     (QFIT, polarizable embedding)
  K. O. Sylvester-Hvid,     University of Copenhagen,     Denmark     (MC-SCRF)
  Peter R. Taylor,          VLSCI/Univ. of Melbourne,     Australia   (Symmetry handling ABACUS, integral transformation)
  Andrew M. Teale,          University of Nottingham,     England     (DFT-AC, DFT-D)
  David P. Tew,             University of Bristol,        England     (CCSD(R12))
  Julien Toulouse,          Sorbonne Univ.,               France      (MC-srDFT)
  Olav Vahtras,             KTH Stockholm,                Sweden      (Triplet response, spin-orbit, ESR, TDDFT, open-shell DFT)
  Lucas Visscher,           Vrije Universiteit Amsterdam, Netherlands (Frozen density embedding)
  David J. Wilson,          La Trobe University,          Australia   (DFT Hessian and DFT magnetizabilities)
  Hans Agren,               KTH Stockholm,                Sweden      (SIRIUS module, RESPONS, MC-SCRF solvation)
 --------------------------------------------------------------------------------

     Date and time (Linux)  : Wed Jan 11 14:17:52 2023
     Host name              : cn040                                   

 * Work memory size             :    64000000 =  488.28 megabytes.

 * Directories for basis set searches:
   1) /gpfs/projects/rjh/adrian/fd_compare/dalton/hf/F2/dipole
   2) /gpfs/projects/rjh/adrian/dalton/build/basis


Compilation information
-----------------------

 Who compiled             | ahurtado
 Host                     | sn-mem
 System                   | Linux-3.10.0-1160.24.1.el7.x86_64
 CMake generator          | Unix Makefiles
 Processor                | x86_64
 64-bit integers          | OFF
 MPI                      | ON
 Fortran compiler         | /gpfs/software/intel/oneAPI/2021_4/mpi/2021.4.0/bi
                          | n/mpif90
 Fortran compiler version | GNU Fortran (GCC) 11.2.0
 C compiler               | /gpfs/software/intel/oneAPI/2021_4/mpi/2021.4.0/bi
                          | n/mpicc
 C compiler version       | gcc (GCC) 11.2.0
 C++ compiler             | /gpfs/software/intel/oneAPI/2021_4/mpi/2021.4.0/bi
                          | n/mpicxx
 C++ compiler version     | unknown
 BLAS                     | /gpfs/software/intel/oneAPI/2021_4/mkl/2021.4.0/li
                          | b/intel64/libmkl_gf_lp64.so;/gpfs/software/intel/o
                          | neAPI/2021_4/mkl/2021.4.0/lib/intel64/libmkl_seque
                          | ntial.so;/gpfs/software/intel/oneAPI/2021_4/mkl/20
                          | 21.4.0/lib/intel64/libmkl_core.so;/usr/lib64/libpt
                          | hread.so;/usr/lib64/libm.so
 LAPACK                   | /gpfs/software/intel/oneAPI/2021_4/mkl/2021.4.0/li
                          | b/intel64/libmkl_lapack95_lp64.a;/gpfs/software/in
                          | tel/oneAPI/2021_4/mkl/2021.4.0/lib/intel64/libmkl_
                          | gf_lp64.so
 Static linking           | OFF
 Last Git revision        | 66052b3af5ea7225e31178bf9a8b031913c72190
 Git branch               | (HEAD detached at Dalton2020.0)
 Configuration time       | 2023-01-11 13:33:37.731835

 * MPI parallel run using 20 processes.


   Content of the .dal input file
 ----------------------------------

**DALTON INPUT
.RUN RESPONSE
.DIRECT
**WAVE FUNCTIONS
.HF
**RESPONSE
*LINEAR
.DIPLEN
.FREQUENCIES
9
0.0 0.0110174375 0.022034875 0.0330523125 0.04406975 0.055087187499999996 0.066104625 0.077122062499
**END OF DALTON INPUT


   Content of the .mol file
 ----------------------------

BASIS
d-aug-cc-pV5Z
blah
blah
Atomtype=1 Atomic
Charge=9 Atoms=2
F_a 0.000000000000 0.000000000000 0.000000000000
F_b 0.000000000000 0.000000000000 2.668160000000


       *******************************************************************
       *********** Output from DALTON general input processing ***********
       *******************************************************************

 --------------------------------------------------------------------------------
   Overall default print level:    0
   Print level for DALTON.STAT:    1

    Parallel calculation using MPI
    AO-direct calculation (in sections where implemented)
    HERMIT 1- and 2-electron integral sections will be executed
    "Old" integral transformation used (limited to max 255 basis functions)
    Wave function sections will be executed (SIRIUS module)
    Dynamic molecular response properties section will be executed (RESPONSE module)
 --------------------------------------------------------------------------------


   ****************************************************************************
   *************** Output of molecule and basis set information ***************
   ****************************************************************************


    The two title cards from your ".mol" input:
    ------------------------------------------------------------------------
 1: blah                                                                    
 2: blah                                                                    
    ------------------------------------------------------------------------

  Atomic type no.    1
  --------------------
  Nuclear charge:   9.00000
  Number of symmetry independent centers:    2
  Number of basis sets to read;    2
  Basis set file used for this atomic type with Z =   9 :
     "/gpfs/projects/rjh/adrian/dalton/build/basis/aug-cc-pV5Z"


                      SYMADD: Requested addition of symmetry
                      --------------------------------------

 Symmetry test threshold:  5.00E-06

@   The molecule is centered at center of mass and rotated
@   so principal axes of inertia are along coordinate axes.

 Symmetry class found: D(oo,h)        

 Symmetry Independent Centres             
 ----------------------------
F_b    9 :      0.00000000     0.00000000     1.33408000  Isotope  1

 The following symmetry elements were found:   X  Y  Z  


                         SYMGRP: Point group information
                         -------------------------------

@    Full point group is: D(oo,h)        
@    Represented as:      D2h

@  * The irrep name for each symmetry:    1: Ag     2: B3u    3: B2u    4: B1g    5: B1u    6: B2g    7: B3g    8: Au 


   * The point group was generated by:

      Reflection in the yz-plane
      Reflection in the xz-plane
      Reflection in the xy-plane

   * Group multiplication table

        |  E   C2z  C2y  C2x   i   Oxy  Oxz  Oyz
   -----+----------------------------------------
     E  |  E   C2z  C2y  C2x   i   Oxy  Oxz  Oyz
    C2z | C2z   E   C2x  C2y  Oxy   i   Oyz  Oxz
    C2y | C2y  C2x   E   C2z  Oxz  Oyz   i   Oxy
    C2x | C2x  C2y  C2z   E   Oyz  Oxz  Oxy   i 
     i  |  i   Oxy  Oxz  Oyz   E   C2z  C2y  C2x
    Oxy | Oxy   i   Oyz  Oxz  C2z   E   C2x  C2y
    Oxz | Oxz  Oyz   i   Oxy  C2y  C2x   E   C2z
    Oyz | Oyz  Oxz  Oxy   i   C2x  C2y  C2z   E 

   * Character table

        |  E   C2z  C2y  C2x   i   Oxy  Oxz  Oyz
   -----+----------------------------------------
    Ag  |   1    1    1    1    1    1    1    1
    B3u |   1   -1   -1    1   -1    1    1   -1
    B2u |   1   -1    1   -1   -1    1   -1    1
    B1g |   1    1   -1   -1    1    1   -1   -1
    B1u |   1    1   -1   -1   -1   -1    1    1
    B2g |   1   -1    1   -1    1   -1    1   -1
    B3g |   1   -1   -1    1    1   -1   -1    1
    Au  |   1    1    1    1   -1   -1   -1   -1

   * Direct product table

        | Ag   B3u  B2u  B1g  B1u  B2g  B3g  Au 
   -----+----------------------------------------
    Ag  | Ag   B3u  B2u  B1g  B1u  B2g  B3g  Au 
    B3u | B3u  Ag   B1g  B2u  B2g  B1u  Au   B3g
    B2u | B2u  B1g  Ag   B3u  B3g  Au   B1u  B2g
    B1g | B1g  B2u  B3u  Ag   Au   B3g  B2g  B1u
    B1u | B1u  B2g  B3g  Au   Ag   B3u  B2u  B1g
    B2g | B2g  B1u  Au   B3g  B3u  Ag   B1g  B2u
    B3g | B3g  Au   B1u  B2g  B2u  B1g  Ag   B3u
    Au  | Au   B3g  B2g  B1u  B1g  B2u  B3u  Ag 


                                 Isotopic Masses
                                 ---------------

                           F_b _1     18.998403
                           F_b _2     18.998403

                       Total mass:    37.996806 amu
                       Natural abundance: 100.000 %

 Center-of-mass coordinates (a.u.):    0.000000    0.000000    0.000000
 Center-of-mass coordinates (Angs):    0.000000    0.000000    0.000000


  Atoms and basis sets
  --------------------

  Number of atom types :    1
  Total number of atoms:    2

  Basis set used is "d-aug-cc-pV5Z" from the basis set library.

  label    atoms   charge   prim   cont     basis
  ----------------------------------------------------------------------
  F_          2    9.0000   180   163      [16s10p6d5f4g3h|8s7p6d5f4g3h]                      
  ----------------------------------------------------------------------
  total:      2   18.0000   360   326
  ----------------------------------------------------------------------
  Spherical harmonic basis used.

  Threshold for neglecting AO integrals:  1.00D-12


  Cartesian Coordinates (a.u.)
  ----------------------------

  Total number of coordinates:    6
  F_b / 1 :     1  x   0.0000000000    2  y   0.0000000000    3  z   1.3340800000
  F_b / 2 :     4  x   0.0000000000    5  y   0.0000000000    6  z  -1.3340800000


  Symmetry Coordinates
  --------------------

  Number of coordinates in each symmetry:     1    1    1    0    1    1    1    0

  Symmetry  Ag  ( 1)

    1   F_b   z    [  3  -    6 ]/2

  Symmetry  B3u ( 2)

    2   F_b   x    [  1  +    4 ]/2

  Symmetry  B2u ( 3)

    3   F_b   y    [  2  +    5 ]/2

  Symmetry  B1u ( 5)

    4   F_b   z    [  3  +    6 ]/2

  Symmetry  B2g ( 6)

    5   F_b   x    [  1  -    4 ]/2

  Symmetry  B3g ( 7)

    6   F_b   y    [  2  -    5 ]/2


   Interatomic separations (in Angstrom):
   --------------------------------------

            F_b _1      F_b _2
            ------      ------
 F_b _1:    0.000000
 F_b _2:    1.411929    0.000000


  Max    interatomic separation is    1.4119 Angstrom (    2.6682 Bohr)
  between atoms    2 and    1, "F_b _2" and "F_b _1".

  Min YX interatomic separation is    1.4119 Angstrom (    2.6682 Bohr)


  Bond distances (Angstrom):
  --------------------------

                  atom 1     atom 2       distance
                  ------     ------       --------
  bond distance:  F_b _2     F_b _1       1.411929




 Principal moments of inertia (u*A**2) and principal axes
 --------------------------------------------------------

   IA       0.000000          0.000000    0.000000    1.000000
   IB      18.937084          0.000000    1.000000    0.000000
   IC      18.937084          1.000000    0.000000    0.000000


 Rotational constants
 --------------------

@    The molecule is linear.

               B =        26687.27 MHz     (    0.890191 cm-1)


@  Nuclear repulsion energy :   30.357999520269 Hartree


  Symmetry Orbitals
  -----------------

  Number of orbitals in each symmetry:          58   40   40   25   58   40   40   25


  Symmetry  Ag ( 1)

    1     F_b      1s         1 +    2
    2     F_b      1s         3 +    4
    3     F_b      1s         5 +    6
    4     F_b      1s         7 +    8
    5     F_b      1s         9 +   10
    6     F_b      1s        11 +   12
    7     F_b      1s        13 +   14
    8     F_b      1s        15 +   16
    9     F_b      2pz       21 -   22
   10     F_b      2pz       27 -   28
   11     F_b      2pz       33 -   34
   12     F_b      2pz       39 -   40
   13     F_b      2pz       45 -   46
   14     F_b      2pz       51 -   52
   15     F_b      2pz       57 -   58
   16     F_b      3d0       63 +   64
   17     F_b      3d2+      67 +   68
   18     F_b      3d0       73 +   74
   19     F_b      3d2+      77 +   78
   20     F_b      3d0       83 +   84
   21     F_b      3d2+      87 +   88
   22     F_b      3d0       93 +   94
   23     F_b      3d2+      97 +   98
   24     F_b      3d0      103 +  104
   25     F_b      3d2+     107 +  108
   26     F_b      3d0      113 +  114
   27     F_b      3d2+     117 +  118
   28     F_b      4f0      125 -  126
   29     F_b      4f2+     129 -  130
   30     F_b      4f0      139 -  140
   31     F_b      4f2+     143 -  144
   32     F_b      4f0      153 -  154
   33     F_b      4f2+     157 -  158
   34     F_b      4f0      167 -  168
   35     F_b      4f2+     171 -  172
   36     F_b      4f0      181 -  182
   37     F_b      4f2+     185 -  186
   38     F_b      5g0      197 +  198
   39     F_b      5g2+     201 +  202
   40     F_b      5g4+     205 +  206
   41     F_b      5g0      215 +  216
   42     F_b      5g2+     219 +  220
   43     F_b      5g4+     223 +  224
   44     F_b      5g0      233 +  234
   45     F_b      5g2+     237 +  238
   46     F_b      5g4+     241 +  242
   47     F_b      5g0      251 +  252
   48     F_b      5g2+     255 +  256
   49     F_b      5g4+     259 +  260
   50     F_b      6h0      271 -  272
   51     F_b      6h2+     275 -  276
   52     F_b      6h4+     279 -  280
   53     F_b      6h0      293 -  294
   54     F_b      6h2+     297 -  298
   55     F_b      6h4+     301 -  302
   56     F_b      6h0      315 -  316
   57     F_b      6h2+     319 -  320
   58     F_b      6h4+     323 -  324


  Symmetry  B3u( 2)

   59     F_b      2px       17 +   18
   60     F_b      2px       23 +   24
   61     F_b      2px       29 +   30
   62     F_b      2px       35 +   36
   63     F_b      2px       41 +   42
   64     F_b      2px       47 +   48
   65     F_b      2px       53 +   54
   66     F_b      3d1+      65 -   66
   67     F_b      3d1+      75 -   76
   68     F_b      3d1+      85 -   86
   69     F_b      3d1+      95 -   96
   70     F_b      3d1+     105 -  106
   71     F_b      3d1+     115 -  116
   72     F_b      4f1+     127 +  128
   73     F_b      4f3+     131 +  132
   74     F_b      4f1+     141 +  142
   75     F_b      4f3+     145 +  146
   76     F_b      4f1+     155 +  156
   77     F_b      4f3+     159 +  160
   78     F_b      4f1+     169 +  170
   79     F_b      4f3+     173 +  174
   80     F_b      4f1+     183 +  184
   81     F_b      4f3+     187 +  188
   82     F_b      5g1+     199 -  200
   83     F_b      5g3+     203 -  204
   84     F_b      5g1+     217 -  218
   85     F_b      5g3+     221 -  222
   86     F_b      5g1+     235 -  236
   87     F_b      5g3+     239 -  240
   88     F_b      5g1+     253 -  254
   89     F_b      5g3+     257 -  258
   90     F_b      6h1+     273 +  274
   91     F_b      6h3+     277 +  278
   92     F_b      6h5+     281 +  282
   93     F_b      6h1+     295 +  296
   94     F_b      6h3+     299 +  300
   95     F_b      6h5+     303 +  304
   96     F_b      6h1+     317 +  318
   97     F_b      6h3+     321 +  322
   98     F_b      6h5+     325 +  326


  Symmetry  B2u( 3)

   99     F_b      2py       19 +   20
  100     F_b      2py       25 +   26
  101     F_b      2py       31 +   32
  102     F_b      2py       37 +   38
  103     F_b      2py       43 +   44
  104     F_b      2py       49 +   50
  105     F_b      2py       55 +   56
  106     F_b      3d1-      61 -   62
  107     F_b      3d1-      71 -   72
  108     F_b      3d1-      81 -   82
  109     F_b      3d1-      91 -   92
  110     F_b      3d1-     101 -  102
  111     F_b      3d1-     111 -  112
  112     F_b      4f3-     119 +  120
  113     F_b      4f1-     123 +  124
  114     F_b      4f3-     133 +  134
  115     F_b      4f1-     137 +  138
  116     F_b      4f3-     147 +  148
  117     F_b      4f1-     151 +  152
  118     F_b      4f3-     161 +  162
  119     F_b      4f1-     165 +  166
  120     F_b      4f3-     175 +  176
  121     F_b      4f1-     179 +  180
  122     F_b      5g3-     191 -  192
  123     F_b      5g1-     195 -  196
  124     F_b      5g3-     209 -  210
  125     F_b      5g1-     213 -  214
  126     F_b      5g3-     227 -  228
  127     F_b      5g1-     231 -  232
  128     F_b      5g3-     245 -  246
  129     F_b      5g1-     249 -  250
  130     F_b      6h5-     261 +  262
  131     F_b      6h3-     265 +  266
  132     F_b      6h1-     269 +  270
  133     F_b      6h5-     283 +  284
  134     F_b      6h3-     287 +  288
  135     F_b      6h1-     291 +  292
  136     F_b      6h5-     305 +  306
  137     F_b      6h3-     309 +  310
  138     F_b      6h1-     313 +  314


  Symmetry  B1g( 4)

  139     F_b      3d2-      59 +   60
  140     F_b      3d2-      69 +   70
  141     F_b      3d2-      79 +   80
  142     F_b      3d2-      89 +   90
  143     F_b      3d2-      99 +  100
  144     F_b      3d2-     109 +  110
  145     F_b      4f2-     121 -  122
  146     F_b      4f2-     135 -  136
  147     F_b      4f2-     149 -  150
  148     F_b      4f2-     163 -  164
  149     F_b      4f2-     177 -  178
  150     F_b      5g4-     189 +  190
  151     F_b      5g2-     193 +  194
  152     F_b      5g4-     207 +  208
  153     F_b      5g2-     211 +  212
  154     F_b      5g4-     225 +  226
  155     F_b      5g2-     229 +  230
  156     F_b      5g4-     243 +  244
  157     F_b      5g2-     247 +  248
  158     F_b      6h4-     263 -  264
  159     F_b      6h2-     267 -  268
  160     F_b      6h4-     285 -  286
  161     F_b      6h2-     289 -  290
  162     F_b      6h4-     307 -  308
  163     F_b      6h2-     311 -  312


  Symmetry  B1u( 5)

  164     F_b      1s         1 -    2
  165     F_b      1s         3 -    4
  166     F_b      1s         5 -    6
  167     F_b      1s         7 -    8
  168     F_b      1s         9 -   10
  169     F_b      1s        11 -   12
  170     F_b      1s        13 -   14
  171     F_b      1s        15 -   16
  172     F_b      2pz       21 +   22
  173     F_b      2pz       27 +   28
  174     F_b      2pz       33 +   34
  175     F_b      2pz       39 +   40
  176     F_b      2pz       45 +   46
  177     F_b      2pz       51 +   52
  178     F_b      2pz       57 +   58
  179     F_b      3d0       63 -   64
  180     F_b      3d2+      67 -   68
  181     F_b      3d0       73 -   74
  182     F_b      3d2+      77 -   78
  183     F_b      3d0       83 -   84
  184     F_b      3d2+      87 -   88
  185     F_b      3d0       93 -   94
  186     F_b      3d2+      97 -   98
  187     F_b      3d0      103 -  104
  188     F_b      3d2+     107 -  108
  189     F_b      3d0      113 -  114
  190     F_b      3d2+     117 -  118
  191     F_b      4f0      125 +  126
  192     F_b      4f2+     129 +  130
  193     F_b      4f0      139 +  140
  194     F_b      4f2+     143 +  144
  195     F_b      4f0      153 +  154
  196     F_b      4f2+     157 +  158
  197     F_b      4f0      167 +  168
  198     F_b      4f2+     171 +  172
  199     F_b      4f0      181 +  182
  200     F_b      4f2+     185 +  186
  201     F_b      5g0      197 -  198
  202     F_b      5g2+     201 -  202
  203     F_b      5g4+     205 -  206
  204     F_b      5g0      215 -  216
  205     F_b      5g2+     219 -  220
  206     F_b      5g4+     223 -  224
  207     F_b      5g0      233 -  234
  208     F_b      5g2+     237 -  238
  209     F_b      5g4+     241 -  242
  210     F_b      5g0      251 -  252
  211     F_b      5g2+     255 -  256
  212     F_b      5g4+     259 -  260
  213     F_b      6h0      271 +  272
  214     F_b      6h2+     275 +  276
  215     F_b      6h4+     279 +  280
  216     F_b      6h0      293 +  294
  217     F_b      6h2+     297 +  298
  218     F_b      6h4+     301 +  302
  219     F_b      6h0      315 +  316
  220     F_b      6h2+     319 +  320
  221     F_b      6h4+     323 +  324


  Symmetry  B2g( 6)

  222     F_b      2px       17 -   18
  223     F_b      2px       23 -   24
  224     F_b      2px       29 -   30
  225     F_b      2px       35 -   36
  226     F_b      2px       41 -   42
  227     F_b      2px       47 -   48
  228     F_b      2px       53 -   54
  229     F_b      3d1+      65 +   66
  230     F_b      3d1+      75 +   76
  231     F_b      3d1+      85 +   86
  232     F_b      3d1+      95 +   96
  233     F_b      3d1+     105 +  106
  234     F_b      3d1+     115 +  116
  235     F_b      4f1+     127 -  128
  236     F_b      4f3+     131 -  132
  237     F_b      4f1+     141 -  142
  238     F_b      4f3+     145 -  146
  239     F_b      4f1+     155 -  156
  240     F_b      4f3+     159 -  160
  241     F_b      4f1+     169 -  170
  242     F_b      4f3+     173 -  174
  243     F_b      4f1+     183 -  184
  244     F_b      4f3+     187 -  188
  245     F_b      5g1+     199 +  200
  246     F_b      5g3+     203 +  204
  247     F_b      5g1+     217 +  218
  248     F_b      5g3+     221 +  222
  249     F_b      5g1+     235 +  236
  250     F_b      5g3+     239 +  240
  251     F_b      5g1+     253 +  254
  252     F_b      5g3+     257 +  258
  253     F_b      6h1+     273 -  274
  254     F_b      6h3+     277 -  278
  255     F_b      6h5+     281 -  282
  256     F_b      6h1+     295 -  296
  257     F_b      6h3+     299 -  300
  258     F_b      6h5+     303 -  304
  259     F_b      6h1+     317 -  318
  260     F_b      6h3+     321 -  322
  261     F_b      6h5+     325 -  326


  Symmetry  B3g( 7)

  262     F_b      2py       19 -   20
  263     F_b      2py       25 -   26
  264     F_b      2py       31 -   32
  265     F_b      2py       37 -   38
  266     F_b      2py       43 -   44
  267     F_b      2py       49 -   50
  268     F_b      2py       55 -   56
  269     F_b      3d1-      61 +   62
  270     F_b      3d1-      71 +   72
  271     F_b      3d1-      81 +   82
  272     F_b      3d1-      91 +   92
  273     F_b      3d1-     101 +  102
  274     F_b      3d1-     111 +  112
  275     F_b      4f3-     119 -  120
  276     F_b      4f1-     123 -  124
  277     F_b      4f3-     133 -  134
  278     F_b      4f1-     137 -  138
  279     F_b      4f3-     147 -  148
  280     F_b      4f1-     151 -  152
  281     F_b      4f3-     161 -  162
  282     F_b      4f1-     165 -  166
  283     F_b      4f3-     175 -  176
  284     F_b      4f1-     179 -  180
  285     F_b      5g3-     191 +  192
  286     F_b      5g1-     195 +  196
  287     F_b      5g3-     209 +  210
  288     F_b      5g1-     213 +  214
  289     F_b      5g3-     227 +  228
  290     F_b      5g1-     231 +  232
  291     F_b      5g3-     245 +  246
  292     F_b      5g1-     249 +  250
  293     F_b      6h5-     261 -  262
  294     F_b      6h3-     265 -  266
  295     F_b      6h1-     269 -  270
  296     F_b      6h5-     283 -  284
  297     F_b      6h3-     287 -  288
  298     F_b      6h1-     291 -  292
  299     F_b      6h5-     305 -  306
  300     F_b      6h3-     309 -  310
  301     F_b      6h1-     313 -  314


  Symmetry  Au ( 8)

  302     F_b      3d2-      59 -   60
  303     F_b      3d2-      69 -   70
  304     F_b      3d2-      79 -   80
  305     F_b      3d2-      89 -   90
  306     F_b      3d2-      99 -  100
  307     F_b      3d2-     109 -  110
  308     F_b      4f2-     121 +  122
  309     F_b      4f2-     135 +  136
  310     F_b      4f2-     149 +  150
  311     F_b      4f2-     163 +  164
  312     F_b      4f2-     177 +  178
  313     F_b      5g4-     189 -  190
  314     F_b      5g2-     193 -  194
  315     F_b      5g4-     207 -  208
  316     F_b      5g2-     211 -  212
  317     F_b      5g4-     225 -  226
  318     F_b      5g2-     229 -  230
  319     F_b      5g4-     243 -  244
  320     F_b      5g2-     247 -  248
  321     F_b      6h4-     263 +  264
  322     F_b      6h2-     267 +  268
  323     F_b      6h4-     285 +  286
  324     F_b      6h2-     289 +  290
  325     F_b      6h4-     307 +  308
  326     F_b      6h2-     311 +  312

  Symmetries of electric field:  B3u(2)  B2u(3)  B1u(5)

  Symmetries of magnetic field:  B3g(7)  B2g(6)  B1g(4)


                     .---------------------------------------.
                     | Starting in Integral Section (HERMIT) |
                     `---------------------------------------'



 ***************************************************************************************
 ****************** Output from **INTEGRALS input processing (HERMIT) ******************
 ***************************************************************************************


 - Using defaults, no **INTEGRALS input found

 Default print level:        1

 Calculation of one-electron Hamiltonian integrals.

 Center of mass  (bohr):      0.000000000000      0.000000000000      0.000000000000
 Operator center (bohr):      0.000000000000      0.000000000000      0.000000000000
 Gauge origin    (bohr):      0.000000000000      0.000000000000      0.000000000000
 Dipole origin   (bohr):      0.000000000000      0.000000000000      0.000000000000


     ************************************************************************
     ************************** Output from HERINT **************************
     ************************************************************************



                      Nuclear contribution to dipole moments
                      --------------------------------------

                    All dipole components are zero by symmetry


  Time used in GABGEN     is       1.49 seconds
  Total CPU  time used in HERMIT:   1.74 seconds
  Total wall time used in HERMIT:   1.75 seconds


                        .----------------------------------.
                        | End of Integral Section (HERMIT) |
                        `----------------------------------'



                   .--------------------------------------------.
                   | Starting in Wave Function Section (SIRIUS) |
                   `--------------------------------------------'


 *** Output from Huckel module :

     Using EWMO model:          F
     Using EHT  model:          T
     Number of Huckel orbitals each symmetry:    3    1    1    0    3    1    1    0

 Huckel EHT eigenvalues for symmetry :  1
          -26.385657      -1.787625      -0.792360

 Huckel EHT eigenvalues for symmetry :  2
           -0.800215

 Huckel EHT eigenvalues for symmetry :  3
           -0.800215

 Huckel EHT eigenvalues for symmetry :  5
          -26.385463      -1.454670      -0.564625

 Huckel EHT eigenvalues for symmetry :  6
           -0.659785

 Huckel EHT eigenvalues for symmetry :  7
           -0.659785

 **********************************************************************
 *SIRIUS* a direct, restricted step, second order MCSCF program       *
 **********************************************************************

 
     Date and time (Linux)  : Wed Jan 11 14:17:54 2023
     Host name              : cn040                                   

 Title lines from ".mol" input file:
     blah                                                                    
     blah                                                                    

 Print level on unit LUPRI =   2 is   0
 Print level on unit LUW4  =   2 is   5

@    Restricted, closed shell Hartree-Fock calculation.

@    Time-dependent Hartree-Fock calculation (random phase approximation).
 Fock matrices are calculated directly and in parallel without use of integrals on disk.

 Initial molecular orbitals are obtained according to
 ".MOSTART EHT   " input option

     Wave function specification
     ============================
@    Wave function type        --- HF ---
@    Number of closed shell electrons          18
@    Number of electrons in active shells       0
@    Total charge of the molecule               0

@    Spin multiplicity and 2 M_S                1         0
@    Total number of symmetries                 8 (point group: D2h)
@    Reference state symmetry                   1 (irrep name : Ag )

     Orbital specifications
     ======================
@    Abelian symmetry species          All |    1    2    3    4    5    6    7    8
@                                          |  Ag   B3u  B2u  B1g  B1u  B2g  B3g  Au 
                                       --- |  ---  ---  ---  ---  ---  ---  ---  ---
@    Total number of orbitals          326 |   58   40   40   25   58   40   40   25
@    Number of basis functions         326 |   58   40   40   25   58   40   40   25

      ** Automatic occupation of RHF orbitals **

      -- Initial occupation of symmetries is determined from extended Huckel guess.           
      -- Initial occupation of symmetries is :
@    Occupied SCF orbitals               9 |    3    1    1    0    2    1    1    0

     Maximum number of Fock   iterations      0
     Maximum number of DIIS   iterations     60
     Maximum number of QC-SCF iterations     60
     Threshold for SCF convergence     1.00D-05

    INFORMATION: Switched to "new" integral transformation (from 1988 ;-) )
    because more than 255 basis functions.


 ***********************************************
 ***** DIIS acceleration of SCF iterations *****
 ***********************************************

 C1-DIIS algorithm; max error vectors =    8

 Automatic occupation of symmetries with  18 electrons.

 Iter     Total energy    Error norm  Delta(E)    SCF occupation
 -----------------------------------------------------------------------------
   1  Screening settings (-IFTHRS, JTDIIS, DIFDEN, times)   -8    1    T  1.20D+01  1.20D+01
@  1  -198.651490321       2.10D+00  -1.99D+02     3   1   1   0   2   1   1   0
      Virial theorem: -V/T =      2.001622
@    MULPOP   F_b _1  0.00; F_b _2  0.00; 
   1  Level shift: doubly occupied orbital energies shifted by -2.00D-01
 -----------------------------------------------------------------------------
   2  Screening settings (-IFTHRS, JTDIIS, DIFDEN, times)   -8    2    T  1.19D+01  1.19D+01
@  2  -198.765724773       4.53D-01  -1.14D-01     3   1   1   0   2   1   1   0
      Virial theorem: -V/T =      1.999659
@    MULPOP   F_b _1 -0.00; F_b _2 -0.00; 
   2  Level shift: doubly occupied orbital energies shifted by -5.00D-02
 -----------------------------------------------------------------------------
   3  Screening settings (-IFTHRS, JTDIIS, DIFDEN, times)   -8    3    T  1.16D+01  1.16D+01
@  3  -198.772258534       9.26D-02  -6.53D-03     3   1   1   0   2   1   1   0
      Virial theorem: -V/T =      2.001531
@    MULPOP   F_b _1 -0.00; F_b _2 -0.00; 
   3  Level shift: doubly occupied orbital energies shifted by -1.25D-02
 -----------------------------------------------------------------------------
   4  Screening settings (-IFTHRS, JTDIIS, DIFDEN, times)  -12    4    F  1.18D+01  1.18D+01
@  4  -198.772954330       3.35D-02  -6.96D-04     3   1   1   0   2   1   1   0
      Virial theorem: -V/T =      2.000754
@    MULPOP   F_b _1  0.00; F_b _2  0.00; 
 -----------------------------------------------------------------------------
   5  Screening settings (-IFTHRS, JTDIIS, DIFDEN, times)  -12    5    T  1.18D+01  1.18D+01
@  5  -198.773013155       6.97D-03  -5.88D-05     3   1   1   0   2   1   1   0
      Virial theorem: -V/T =      2.001026
@    MULPOP   F_b _1 -0.00; F_b _2 -0.00; 
 -----------------------------------------------------------------------------
   6  Screening settings (-IFTHRS, JTDIIS, DIFDEN, times)  -12    6    T  1.19D+01  1.19D+01
@  6  -198.773015739       7.72D-04  -2.58D-06     3   1   1   0   2   1   1   0
      Virial theorem: -V/T =      2.000974
@    MULPOP   F_b _1 -0.00; F_b _2 -0.00; 
 -----------------------------------------------------------------------------
   7  Screening settings (-IFTHRS, JTDIIS, DIFDEN, times)  -12    7    T  1.19D+01  1.19D+01
@  7  -198.773015785       8.01D-05  -4.56D-08     3   1   1   0   2   1   1   0
      Virial theorem: -V/T =      2.000977
@    MULPOP   F_b _1  0.00; F_b _2  0.00; 
 -----------------------------------------------------------------------------
   8  Screening settings (-IFTHRS, JTDIIS, DIFDEN, times)  -12    8    T  1.20D+01  1.20D+01
@  8  -198.773015785       8.44D-06  -4.71D-10     3   1   1   0   2   1   1   0

@ *** DIIS converged in   8 iterations !
@     Converged SCF energy, gradient:   -198.773015785317    8.44D-06
    - total time used in SIRFCK :              0.00 seconds


 *** SCF orbital energy analysis ***

 Only the 20 lowest virtual orbital energies printed in each symmetry.

 Number of electrons :   18
 Orbital occupations :    3    1    1    0    2    1    1    0

 Sym       Hartree-Fock orbital energies

1 Ag    -26.42807014    -1.76465018    -0.75184926     0.03325431     0.06584669
          0.16040368     0.19451108     0.21366761     0.36741188     0.54921452
          0.61730846     0.66048925     0.69040859     0.97202148     1.26952198
          1.39394371     1.56177007     1.64617027     1.65516552     1.88440066
          2.04970156     2.24102103     2.63290215

2 B3u    -0.81143890     0.04293766     0.17935619     0.24924100     0.53559487
          0.56902144     0.64535818     0.89613549     1.52392723     1.53588000
          1.62492460     1.63536110     1.98849161     2.50928038     3.42410412
          3.64479637     3.69375259     4.01762088     4.09409693     4.21084763
          4.26337441

3 B2u    -0.81143890     0.04293766     0.17935619     0.24924100     0.53559487
          0.56902144     0.64535818     0.89613549     1.52392723     1.53588000
          1.62492460     1.63536110     1.98849161     2.50928038     3.42410412
          3.64479637     3.69375259     4.01762088     4.09409693     4.21084763
          4.26337441

4 B1g     0.19451108     0.61730846     0.66048925     1.39394371     1.56177007
          1.65516552     2.04970156     3.46527033     3.75088321     3.89049876
          4.04447285     4.29926274     5.12560533     8.73385617     8.95885989
          9.37959209     9.73541483    10.23144295    10.96437802    21.50120693

5 B1u   -26.42782355    -1.49746871     0.02734335     0.06632007     0.11572340
          0.23035001     0.24434048     0.25206835     0.46712387     0.61541989
          0.63003973     0.87225506     0.89213964     0.90893995     1.61997902
          1.62578708     1.62864081     1.66008716     1.70368254     1.88628531
          2.58868750     2.66383690

6 B2g    -0.66694586     0.05943977     0.19563944     0.32916091     0.56914241
          0.65913621     0.78933671     1.16226860     1.66343578     1.78872556
          1.91372215     2.02490552     2.18781033     3.25305844     3.72769504
          3.97562979     4.06956122     4.19544284     4.52929514     5.03962205
          5.23915644

7 B3g    -0.66694586     0.05943977     0.19563944     0.32916091     0.56914241
          0.65913621     0.78933671     1.16226860     1.66343578     1.78872556
          1.91372215     2.02490552     2.18781033     3.25305844     3.72769504
          3.97562979     4.06956122     4.19544284     4.52929514     5.03962205
          5.23915644

8 Au      0.24434048     0.61541989     0.89213964     1.61997902     1.62864081
          1.70368254     2.66383690     3.72821082     4.01818781     4.11963747
          4.27213036     4.97252048     6.22801252     9.39726592     9.49020702
          9.52446259    10.59288358    11.45688123    11.81402807    21.80494571

    E(LUMO) :     0.02734335 au (symmetry 5)
  - E(HOMO) :    -0.66694586 au (symmetry 7)
  ------------------------------------------
    gap     :     0.69428921 au

 --- Writing SIRIFC interface file

 CPU and wall time for SCF :      94.942      94.969


                       .-----------------------------------.
                       | --- Final results from SIRIUS --- |
                       `-----------------------------------'


@    Spin multiplicity:           1
@    Spatial symmetry:            1 ( irrep  Ag  in D2h )
@    Total charge of molecule:    0

@    Final HF energy:            -198.773015785317                 
@    Nuclear repulsion:            30.357999520269
@    Electronic energy:          -229.131015305586

@    Final gradient norm:           0.000008442795

 
     Date and time (Linux)  : Wed Jan 11 14:19:29 2023
     Host name              : cn040                                   

File label for MO orbitals:  11Jan23   FOCKDIIS

 (Only coefficients > 0.0100 are printed.)

 Molecular orbitals for symmetry species 1  (Ag )
 ------------------------------------------------

    Orbital         1        2        3        4        5        6        7
   1 F_b :1s     0.7072  -0.0015   0.0025  -0.0024   0.0014   0.0027  -0.0000
   2 F_b :1s     0.0001   0.6659   0.1632  -0.0522  -0.0280  -0.0782  -0.0000
   4 F_b :1s    -0.0004  -0.0015   0.0049   0.0173  -0.0284  -0.0617  -0.0000
   5 F_b :1s     0.0012  -0.0127   0.0149  -0.0673   0.0942   0.1985   0.0000
   6 F_b :1s     0.0004  -0.0214   0.0640  -0.6160   0.3802   2.4066   0.0000
   7 F_b :1s    -0.0004   0.0035   0.0037  -1.6009  -1.2949   4.8531  -0.0000
   8 F_b :1s    -0.0000  -0.0008  -0.0014   1.6720   0.4365  -2.9909  -0.0000
   9 F_b :2pz   -0.0051  -0.0860   0.6334  -0.0292  -0.0100  -0.0558   0.0000
  11 F_b :2pz    0.0014  -0.0036   0.0051  -0.0027  -0.0133   0.0084  -0.0000
  12 F_b :2pz    0.0016   0.0021   0.0043   0.1048  -0.0850  -0.4383  -0.0000
  13 F_b :2pz    0.0017   0.0031   0.0142  -0.3341   0.2740   1.3134   0.0000
  14 F_b :2pz    0.0003   0.0033   0.0103  -2.5322  -0.7569   9.2452   0.0000
  15 F_b :2pz   -0.0000   0.0002  -0.0001   1.0800  -2.3025  -0.2758  -0.0000
  20 F_b :3d0    0.0002   0.0060  -0.0139  -0.0060   0.0079   0.0270  -0.0000
  21 F_b :3d2+   0.0000   0.0000  -0.0000  -0.0000  -0.0000  -0.0000   0.0172
  22 F_b :3d0   -0.0004   0.0088  -0.0197   0.0056  -0.0105  -0.0353  -0.0000
  23 F_b :3d2+  -0.0000  -0.0000  -0.0000   0.0000   0.0000   0.0000  -0.0703
  24 F_b :3d0   -0.0007   0.0044  -0.0201   0.2955  -0.2884  -1.1758  -0.0000
  25 F_b :3d2+   0.0000   0.0000   0.0000  -0.0000  -0.0000  -0.0000   0.1993
  26 F_b :3d0   -0.0001  -0.0018  -0.0037   0.9935   0.5241  -3.6917  -0.0000
  27 F_b :3d2+  -0.0000  -0.0000  -0.0000   0.0000   0.0000   0.0000  -0.6303
  34 F_b :4f0    0.0003  -0.0035   0.0053  -0.0301   0.0683   0.1503   0.0000
  35 F_b :4f2+   0.0000  -0.0000  -0.0000   0.0000   0.0000   0.0000   0.0104
  36 F_b :4f0    0.0001  -0.0004   0.0039  -0.1597   0.0214   0.5835   0.0000
  47 F_b :5g0   -0.0001   0.0004  -0.0008   0.0234  -0.0109  -0.0881  -0.0000
  48 F_b :5g2+  -0.0000  -0.0000   0.0000   0.0000   0.0000   0.0000  -0.0108
  56 F_b :6h0    0.0000  -0.0003   0.0002  -0.0033   0.0017   0.0102  -0.0000

    Orbital         8        9       10       11       12       13
   1 F_b :1s    -0.0081   0.0035   0.0215  -0.0000   0.0000   0.0026
   2 F_b :1s    -0.0822   0.1639   0.0232  -0.0000   0.0000  -0.0522
   3 F_b :1s    -0.0168   0.0058   0.0527  -0.0000   0.0000   0.0117
   4 F_b :1s     0.0940  -0.0599  -0.3014  -0.0000   0.0000  -0.0854
   5 F_b :1s    -0.3423   0.4153   1.0323   0.0000  -0.0000   0.3350
   6 F_b :1s    -1.6436   6.2764   6.8708   0.0000  -0.0000  -0.9930
   7 F_b :1s     2.2625   2.1372  -2.1319  -0.0000   0.0000  -1.9689
   8 F_b :1s    -0.5694  -2.4525  -0.6332  -0.0000  -0.0000   1.1440
   9 F_b :2pz    0.0461   0.0709   0.1325   0.0000   0.0000  -0.0152
  10 F_b :2pz   -0.0121   0.0017   0.0225   0.0000  -0.0000   0.0380
  11 F_b :2pz    0.0370  -0.0008  -0.0600   0.0000  -0.0000  -0.1123
  12 F_b :2pz    0.3186  -1.0400  -1.2904  -0.0000   0.0000   0.0593
  13 F_b :2pz   -0.9981   3.2679   4.2603   0.0000  -0.0000  -0.3843
  14 F_b :2pz    0.0741  10.9827   4.7581   0.0000   0.0000  -3.7225
  15 F_b :2pz    1.5849  -0.0323  -0.8779  -0.0000   0.0000  -0.3719
  18 F_b :3d0    0.0031  -0.0186  -0.0192  -0.0000   0.0000  -0.0040
  19 F_b :3d2+   0.0000  -0.0000   0.0000  -0.0118   0.0065   0.0000
  20 F_b :3d0   -0.0310   0.0855   0.0745  -0.0000   0.0000   0.0108
  21 F_b :3d2+  -0.0000   0.0000  -0.0000   0.0735  -0.0313  -0.0000
  22 F_b :3d0    0.0098  -0.1300  -0.0885   0.0000   0.0000  -0.0083
  23 F_b :3d2+  -0.0000  -0.0000  -0.0000  -0.1627   0.0699   0.0000
  24 F_b :3d0    1.0855  -2.6823  -4.2364  -0.0000   0.0000  -0.5700
  25 F_b :3d2+  -0.0000   0.0000  -0.0000   0.7648  -0.6742  -0.0000
  26 F_b :3d0   -0.9997  -4.8415  -1.3122  -0.0000  -0.0000   2.0301
  27 F_b :3d2+   0.0000  -0.0000   0.0000  -0.3991   0.2003   0.0000
  31 F_b :4f2+  -0.0000  -0.0000  -0.0000   0.0062   0.0153  -0.0000
  32 F_b :4f0    0.0122  -0.0350  -0.0156   0.0000  -0.0000  -0.0513
  33 F_b :4f2+   0.0000   0.0000   0.0000  -0.0253  -0.0645  -0.0000
  34 F_b :4f0   -0.2095   0.5116   0.6572   0.0000  -0.0000   0.3427
  35 F_b :4f2+  -0.0000  -0.0000  -0.0000   0.0811   0.2447   0.0000
  36 F_b :4f0   -0.2032   0.8972   1.3279   0.0000  -0.0000  -1.0631
  37 F_b :4f2+  -0.0000   0.0000  -0.0000  -0.2400  -1.0252  -0.0000
  44 F_b :5g0    0.0215  -0.0235  -0.0579   0.0000  -0.0000  -0.0469
  45 F_b :5g2+  -0.0000   0.0000  -0.0000   0.0156  -0.0304  -0.0000
  47 F_b :5g0    0.0479  -0.1738  -0.2276  -0.0000   0.0000   0.0620
  48 F_b :5g2+   0.0000  -0.0000   0.0000  -0.0094   0.1273   0.0000
  56 F_b :6h0   -0.0079   0.0101   0.0321  -0.0000   0.0000  -0.0080
  57 F_b :6h2+  -0.0000  -0.0000  -0.0000  -0.0152  -0.0182   0.0000

 Molecular orbitals for symmetry species 2  (B3u)
 ------------------------------------------------

    Orbital         1        2        3        4        5        6        7
   1 F_b :2px    0.6840  -0.0320   0.1277  -0.0358  -0.0000  -0.2308   0.1342
   2 F_b :2px   -0.0010  -0.0026  -0.0089  -0.0021   0.0000  -0.0101   0.0392
   3 F_b :2px   -0.0016   0.0050   0.0198   0.0060   0.0000  -0.0003  -0.0984
   4 F_b :2px   -0.0057   0.0177   0.0612  -0.0599   0.0000   0.5915   0.2433
   5 F_b :2px   -0.0162   0.1067   0.4405  -0.6669   0.0000   2.1814  -0.4351
   6 F_b :2px    0.0002  -0.2783  -1.1644  -0.0048   0.0000  -1.0386   0.5475
   7 F_b :2px    0.0005   0.6574   0.5404   0.0556  -0.0000   0.2190  -0.2124
  10 F_b :3d1+  -0.0070   0.0017   0.0022  -0.0047   0.0000   0.0045  -0.0290
  11 F_b :3d1+  -0.0074  -0.0223  -0.0857   0.0114  -0.0000  -0.3807   0.1268
  12 F_b :3d1+  -0.0014   0.0734   0.2653  -0.0602   0.0000   1.2396  -0.5989
  13 F_b :3d1+  -0.0002  -0.0079  -0.1984  -1.7329   0.0000   1.3066   1.0010
  17 F_b :4f3+  -0.0000   0.0000  -0.0000   0.0000   0.0164   0.0000  -0.0000
  18 F_b :4f1+   0.0042   0.0047   0.0195   0.0112  -0.0000   0.0525  -0.0531
  19 F_b :4f3+  -0.0000   0.0000  -0.0000   0.0000  -0.0689   0.0000  -0.0000
  20 F_b :4f1+   0.0014  -0.0249  -0.0914  -0.0286   0.0000  -0.3350   0.2205
  21 F_b :4f3+   0.0000  -0.0000   0.0000  -0.0000   0.2254  -0.0000   0.0000
  22 F_b :4f1+   0.0011  -0.0527  -0.1544   0.5743  -0.0000  -1.9134  -0.7725
  23 F_b :4f3+  -0.0000   0.0000  -0.0000   0.0000  -0.6707   0.0000  -0.0000
  28 F_b :5g1+  -0.0011  -0.0001   0.0014   0.0288  -0.0000  -0.0189  -0.0298
  29 F_b :5g3+  -0.0000   0.0000  -0.0000   0.0000   0.0105   0.0000  -0.0000
  30 F_b :5g1+  -0.0002   0.0247   0.0812  -0.0958  -0.0000   0.5113  -0.0208
  31 F_b :5g3+   0.0000  -0.0000   0.0000  -0.0000  -0.0153  -0.0000   0.0000
  35 F_b :6h1+   0.0004   0.0006   0.0020  -0.0018  -0.0000   0.0124   0.0005
  38 F_b :6h1+   0.0004  -0.0042  -0.0146   0.0004   0.0000  -0.0745   0.0179

    Orbital         8        9       10       11
   1 F_b :2px   -0.1948  -0.0000  -0.0180   0.0000
   2 F_b :2px   -0.0381   0.0000   0.0131  -0.0000
   3 F_b :2px    0.1478   0.0000  -0.1482  -0.0000
   4 F_b :2px   -1.8511   0.0000   3.3292  -0.0000
   5 F_b :2px   -0.9701   0.0000   0.5376  -0.0000
   6 F_b :2px    0.5363  -0.0000  -0.6447   0.0000
   7 F_b :2px   -0.0522   0.0000   0.1109   0.0000
   9 F_b :3d1+  -0.0091  -0.0000  -0.0158  -0.0000
  10 F_b :3d1+   0.0022  -0.0000  -0.0739  -0.0000
  11 F_b :3d1+   0.6697   0.0000  -1.8759  -0.0000
  12 F_b :3d1+  -2.7403   0.0000   4.0786  -0.0000
  13 F_b :3d1+  -0.8881  -0.0000   0.4002  -0.0000
  16 F_b :4f1+   0.0055   0.0000  -0.0264   0.0000
  17 F_b :4f3+   0.0000   0.0362  -0.0000  -0.0440
  18 F_b :4f1+  -0.1286   0.0000   0.3624   0.0000
  19 F_b :4f3+   0.0000  -0.1332  -0.0000   0.1741
  20 F_b :4f1+   0.7380  -0.0000  -1.8964  -0.0000
  21 F_b :4f3+  -0.0000   0.5661   0.0000  -0.8584
  22 F_b :4f1+   2.4026   0.0000  -2.1398   0.0000
  23 F_b :4f3+   0.0000  -0.3188  -0.0000   0.3018
  26 F_b :5g1+   0.0244  -0.0000  -0.0479  -0.0000
  27 F_b :5g3+  -0.0000  -0.0431   0.0000  -0.0443
  28 F_b :5g1+  -0.0903   0.0000   0.1767   0.0000
  29 F_b :5g3+   0.0000   0.1562  -0.0000   0.1720
  30 F_b :5g1+  -0.7229   0.0000   1.6560  -0.0000
  31 F_b :5g3+  -0.0000  -0.4926   0.0000  -0.6087
  35 F_b :6h1+  -0.0239   0.0000   0.0422   0.0000
  36 F_b :6h3+   0.0000   0.0135  -0.0000   0.0005
  38 F_b :6h1+   0.1708  -0.0000  -0.3561  -0.0000
  39 F_b :6h3+  -0.0000  -0.0211   0.0000   0.0112

 Molecular orbitals for symmetry species 3  (B2u)
 ------------------------------------------------

    Orbital         1        2        3        4        5        6        7
   1 F_b :2py    0.6840  -0.0320   0.1277  -0.0358   0.0000  -0.2308   0.1342
   2 F_b :2py   -0.0010  -0.0026  -0.0089  -0.0021  -0.0000  -0.0101   0.0392
   3 F_b :2py   -0.0016   0.0050   0.0198   0.0060  -0.0000  -0.0003  -0.0984
   4 F_b :2py   -0.0057   0.0177   0.0612  -0.0599  -0.0000   0.5915   0.2433
   5 F_b :2py   -0.0162   0.1067   0.4405  -0.6669  -0.0000   2.1814  -0.4351
   6 F_b :2py    0.0002  -0.2783  -1.1644  -0.0048  -0.0000  -1.0386   0.5475
   7 F_b :2py    0.0005   0.6574   0.5404   0.0556   0.0000   0.2190  -0.2124
  10 F_b :3d1-  -0.0070   0.0017   0.0022  -0.0047  -0.0000   0.0045  -0.0290
  11 F_b :3d1-  -0.0074  -0.0223  -0.0857   0.0114   0.0000  -0.3807   0.1268
  12 F_b :3d1-  -0.0014   0.0734   0.2653  -0.0602  -0.0000   1.2396  -0.5989
  13 F_b :3d1-  -0.0002  -0.0079  -0.1984  -1.7329  -0.0000   1.3066   1.0010
  16 F_b :4f3-   0.0000   0.0000  -0.0000   0.0000   0.0164  -0.0000   0.0000
  18 F_b :4f3-   0.0000  -0.0000   0.0000  -0.0000  -0.0689  -0.0000   0.0000
  19 F_b :4f1-   0.0042   0.0047   0.0195   0.0112   0.0000   0.0525  -0.0531
  20 F_b :4f3-  -0.0000   0.0000  -0.0000   0.0000   0.2254   0.0000  -0.0000
  21 F_b :4f1-   0.0014  -0.0249  -0.0914  -0.0286  -0.0000  -0.3350   0.2205
  22 F_b :4f3-   0.0000  -0.0000   0.0000  -0.0000  -0.6707  -0.0000   0.0000
  23 F_b :4f1-   0.0011  -0.0527  -0.1544   0.5743   0.0000  -1.9134  -0.7725
  28 F_b :5g3-   0.0000  -0.0000   0.0000  -0.0000   0.0105  -0.0000   0.0000
  29 F_b :5g1-  -0.0011  -0.0001   0.0014   0.0288   0.0000  -0.0189  -0.0298
  30 F_b :5g3-   0.0000   0.0000  -0.0000  -0.0000  -0.0153  -0.0000   0.0000
  31 F_b :5g1-  -0.0002   0.0247   0.0812  -0.0958   0.0000   0.5113  -0.0208
  37 F_b :6h1-   0.0004   0.0006   0.0020  -0.0018   0.0000   0.0124   0.0005
  40 F_b :6h1-   0.0004  -0.0042  -0.0146   0.0004  -0.0000  -0.0745   0.0179

    Orbital         8        9       10       11
   1 F_b :2py   -0.1948   0.0000  -0.0180  -0.0000
   2 F_b :2py   -0.0381  -0.0000   0.0131   0.0000
   3 F_b :2py    0.1478  -0.0000  -0.1482   0.0000
   4 F_b :2py   -1.8511  -0.0000   3.3292   0.0000
   5 F_b :2py   -0.9701  -0.0000   0.5376   0.0000
   6 F_b :2py    0.5363   0.0000  -0.6447  -0.0000
   7 F_b :2py   -0.0522  -0.0000   0.1109  -0.0000
   9 F_b :3d1-  -0.0091  -0.0000  -0.0158   0.0000
  10 F_b :3d1-   0.0022   0.0000  -0.0739  -0.0000
  11 F_b :3d1-   0.6697  -0.0000  -1.8759   0.0000
  12 F_b :3d1-  -2.7403   0.0000   4.0786   0.0000
  13 F_b :3d1-  -0.8881   0.0000   0.4002   0.0000
  16 F_b :4f3-  -0.0000   0.0362   0.0000  -0.0440
  17 F_b :4f1-   0.0055  -0.0000  -0.0264  -0.0000
  18 F_b :4f3-  -0.0000  -0.1332   0.0000   0.1741
  19 F_b :4f1-  -0.1286   0.0000   0.3624  -0.0000
  20 F_b :4f3-   0.0000   0.5661  -0.0000  -0.8584
  21 F_b :4f1-   0.7380   0.0000  -1.8964   0.0000
  22 F_b :4f3-  -0.0000  -0.3188   0.0000   0.3018
  23 F_b :4f1-   2.4026   0.0000  -2.1398  -0.0000
  26 F_b :5g3-  -0.0000  -0.0431   0.0000  -0.0443
  27 F_b :5g1-   0.0244   0.0000  -0.0479   0.0000
  28 F_b :5g3-  -0.0000   0.1562   0.0000   0.1720
  29 F_b :5g1-  -0.0903  -0.0000   0.1767  -0.0000
  30 F_b :5g3-  -0.0000  -0.4926   0.0000  -0.6087
  31 F_b :5g1-  -0.7229  -0.0000   1.6560   0.0000
  36 F_b :6h3-  -0.0000   0.0135   0.0000   0.0005
  37 F_b :6h1-  -0.0239  -0.0000   0.0422   0.0000
  39 F_b :6h3-   0.0000  -0.0211  -0.0000   0.0112
  40 F_b :6h1-   0.1708   0.0000  -0.3561   0.0000

 Molecular orbitals for symmetry species 4  (B1g)
 ------------------------------------------------

    Orbital         1        2        3        4        5        6        7
   2 F_b :3d2-  -0.0066   0.0118   0.0065   0.0000   0.0526   0.0321   0.0567
   3 F_b :3d2-   0.0172  -0.0735  -0.0313   0.0000  -0.1001  -0.0443  -0.1494
   4 F_b :3d2-  -0.0703   0.1627   0.0699   0.0000   0.7260   0.2817   1.1457
   5 F_b :3d2-   0.1993  -0.7648  -0.6742   0.0000  -0.4914  -0.5780  -0.2953
   6 F_b :3d2-  -0.6303   0.3991   0.2003   0.0000   0.1878   0.1699   0.0484
   8 F_b :4f2-   0.0012  -0.0062   0.0153   0.0000  -0.0346   0.0245   0.0326
   9 F_b :4f2-  -0.0029   0.0253  -0.0645   0.0000   0.1083  -0.0907  -0.1462
  10 F_b :4f2-   0.0104  -0.0811   0.2447   0.0000  -0.6040   0.6483   0.3806
  11 F_b :4f2-  -0.0065   0.2400  -1.0252   0.0000   0.3830  -0.7300   0.2232
  14 F_b :5g4-   0.0000   0.0000   0.0000   0.0590   0.0000   0.0000   0.0000
  15 F_b :5g2-  -0.0025   0.0054   0.0074   0.0000   0.0101   0.0481  -0.0492
  16 F_b :5g4-   0.0000   0.0000   0.0000  -0.2233   0.0000   0.0000   0.0000
  17 F_b :5g2-   0.0066  -0.0156  -0.0304   0.0000  -0.0106  -0.1901   0.2175
  18 F_b :5g4-   0.0000   0.0000   0.0000   0.7166   0.0000   0.0000   0.0000
  19 F_b :5g2-  -0.0108   0.0094   0.1273   0.0000  -0.0907   0.9113  -1.1938
  23 F_b :6h2-   0.0014  -0.0052   0.0072   0.0000  -0.0205   0.0181  -0.0102
  24 F_b :6h4-   0.0000   0.0000   0.0000   0.0171   0.0000   0.0000   0.0000
  25 F_b :6h2-  -0.0040   0.0152  -0.0182   0.0000   0.0595  -0.0792   0.1050

    Orbital         8        9       10
   1 F_b :3d2-   0.0000  -0.0165   0.0000
   2 F_b :3d2-   0.0000   0.0411   0.0000
   3 F_b :3d2-   0.0000  -0.3174   0.0000
   4 F_b :3d2-   0.0000   0.3819   0.0000
   5 F_b :3d2-   0.0000  -0.1993   0.0000
   6 F_b :3d2-   0.0000   0.0789   0.0000
   7 F_b :4f2-   0.0000   0.0267   0.0000
   8 F_b :4f2-   0.0000  -0.1046   0.0000
   9 F_b :4f2-   0.0000   0.7333   0.0000
  10 F_b :4f2-   0.0000  -0.5181   0.0000
  11 F_b :4f2-   0.0000   0.2047   0.0000
  12 F_b :5g4-   0.0060   0.0000   0.0282
  14 F_b :5g4-  -0.0391   0.0000  -0.1924
  15 F_b :5g2-   0.0000   0.0595   0.0000
  16 F_b :5g4-   0.1853   0.0000   0.9967
  17 F_b :5g2-   0.0000  -0.2819   0.0000
  18 F_b :5g4-  -0.1643   0.0000  -0.3951
  19 F_b :5g2-   0.0000   0.1028   0.0000
  20 F_b :6h4-  -0.0399   0.0000   0.0114
  21 F_b :6h2-   0.0000   0.0163   0.0000
  22 F_b :6h4-   0.1785   0.0000  -0.0529
  23 F_b :6h2-   0.0000  -0.0712   0.0000
  24 F_b :6h4-  -0.6679   0.0000   0.2048
  25 F_b :6h2-   0.0000   0.2327   0.0000

 Molecular orbitals for symmetry species 5  (B1u)
 ------------------------------------------------

    Orbital         1        2        3        4        5        6        7
   1 F_b :1s     0.7073   0.0011   0.0020  -0.0011   0.0049   0.0070  -0.0000
   2 F_b :1s     0.0004   0.7271   0.0689  -0.1894   0.1329  -0.0030  -0.0000
   3 F_b :1s     0.0001   0.0005   0.0026   0.0037   0.0077   0.0176  -0.0000
   4 F_b :1s    -0.0008   0.0016  -0.0093  -0.0194  -0.0308  -0.0801  -0.0000
   5 F_b :1s     0.0007   0.0018  -0.0907  -0.1639  -0.2450  -0.4318   0.0000
   6 F_b :1s     0.0015   0.0369   1.1118   1.3583   3.0076   5.3024   0.0000
   7 F_b :1s     0.0005   0.0354   5.5891   7.4783  15.0684  25.1627  -0.0000
   8 F_b :1s     0.0001   0.0084  12.0256  15.7098  26.9534  27.6854  -0.0000
   9 F_b :2pz   -0.0049   0.0959  -0.1290   0.4846  -0.4220   0.3012  -0.0000
  10 F_b :2pz    0.0016  -0.0016  -0.0031  -0.0031  -0.0091  -0.0161   0.0000
  11 F_b :2pz    0.0018  -0.0015   0.0277   0.0451   0.0761   0.1550   0.0000
  12 F_b :2pz    0.0002  -0.0133  -0.2711  -0.3242  -0.7695  -1.4383   0.0000
  13 F_b :2pz    0.0002  -0.0298  -1.3374  -1.6923  -3.7072  -6.4159   0.0000
  14 F_b :2pz   -0.0001  -0.0068  -2.6684  -3.4543  -7.2426 -11.0723   0.0000
  15 F_b :2pz   -0.0000  -0.0006  -2.0894  -2.1031  -2.9365  -2.3388   0.0000
  20 F_b :3d0    0.0001  -0.0038  -0.0055   0.0024  -0.0144  -0.0066  -0.0000
  22 F_b :3d0    0.0007  -0.0013   0.1349   0.2056   0.3748   0.7500   0.0000
  23 F_b :3d2+   0.0000   0.0000   0.0000  -0.0000   0.0000  -0.0000  -0.0306
  24 F_b :3d0    0.0002   0.0061   0.3423   0.4961   0.9414   1.8163   0.0000
  25 F_b :3d2+   0.0000   0.0000   0.0000  -0.0000   0.0000  -0.0000   0.2149
  26 F_b :3d0    0.0000   0.0013   0.3792   0.5387   0.8745   0.6452  -0.0000
  27 F_b :3d2+   0.0000   0.0000   0.0000  -0.0000  -0.0000   0.0000   2.2443
  30 F_b :4f0    0.0000   0.0007   0.0023   0.0033   0.0059   0.0108  -0.0000
  32 F_b :4f0   -0.0003   0.0003  -0.0217  -0.0317  -0.0597  -0.1130   0.0000
  34 F_b :4f0   -0.0002  -0.0020  -0.0567  -0.0794  -0.1672  -0.3774  -0.0000
  35 F_b :4f2+  -0.0000  -0.0000  -0.0000   0.0000  -0.0000   0.0000   0.1115
  36 F_b :4f0   -0.0000  -0.0012  -0.0639  -0.0829  -0.1250  -0.0161  -0.0000
  37 F_b :4f2+  -0.0000  -0.0000  -0.0000   0.0000  -0.0000   0.0000  -0.5603
  44 F_b :5g0    0.0001   0.0004   0.0071   0.0112   0.0244   0.0691  -0.0000
  45 F_b :5g2+   0.0000   0.0000   0.0000  -0.0000   0.0000  -0.0000  -0.0472
  47 F_b :5g0    0.0000   0.0008   0.0139   0.0183   0.0337   0.0505   0.0000
  48 F_b :5g2+   0.0000   0.0000   0.0000  -0.0000   0.0000  -0.0000   0.0375
  56 F_b :6h0   -0.0000  -0.0002  -0.0008  -0.0011  -0.0038  -0.0159   0.0000
  57 F_b :6h2+  -0.0000  -0.0000  -0.0000   0.0000  -0.0000   0.0000   0.0153

    Orbital         8        9       10       11       12
   1 F_b :1s     0.0007  -0.0096  -0.0000  -0.0089  -0.0169
   2 F_b :1s     0.0320   0.0427  -0.0000  -0.0987  -0.2000
   3 F_b :1s     0.0006  -0.0274  -0.0000  -0.0172  -0.0330
   4 F_b :1s     0.0088   0.1184  -0.0000   0.0735   0.1895
   5 F_b :1s    -0.3025   1.0726   0.0000   0.3605  -0.1480
   6 F_b :1s     2.4822 -11.1255  -0.0000  -0.0229 -16.8570
   7 F_b :1s    17.4000 -53.8879  -0.0000  -3.4843 -26.7531
   8 F_b :1s    19.3479 -31.8513  -0.0000   1.0532 -11.6359
   9 F_b :2pz    0.0840   0.2289  -0.0000   0.0961   0.0360
  10 F_b :2pz   -0.0031   0.0315   0.0000   0.0164   0.0312
  11 F_b :2pz    0.0563  -0.3017   0.0000  -0.1247  -0.1888
  12 F_b :2pz   -0.3890   2.7939   0.0000   0.8726   3.3820
  13 F_b :2pz   -3.2607  14.5235   0.0000   2.2352  11.9854
  14 F_b :2pz   -7.4103  17.8213   0.0000   0.2292   7.6955
  15 F_b :2pz   -1.8529   2.4447   0.0000  -0.2200   0.8634
  20 F_b :3d0   -0.0135   0.0354  -0.0000  -0.0126  -0.0113
  21 F_b :3d2+   0.0000   0.0000  -0.0208   0.0000   0.0000
  22 F_b :3d0    0.2567  -1.4629   0.0000  -0.4956  -1.3029
  23 F_b :3d2+  -0.0000  -0.0000   0.0640  -0.0000  -0.0000
  24 F_b :3d0    0.7561  -3.7130   0.0000   0.2247  -6.6897
  25 F_b :3d2+  -0.0000  -0.0000   2.4125  -0.0000  -0.0000
  26 F_b :3d0    2.4126  -2.7218  -0.0000   1.5553  -1.8624
  27 F_b :3d2+   0.0000   0.0000   2.1537  -0.0000  -0.0000
  30 F_b :4f0    0.0059  -0.0224  -0.0000  -0.0051  -0.0128
  32 F_b :4f0   -0.0450   0.2284   0.0000   0.0797   0.1310
  34 F_b :4f0   -0.0274   0.6274  -0.0000   0.0836   1.5812
  35 F_b :4f2+   0.0000   0.0000  -0.2836   0.0000   0.0000
  36 F_b :4f0   -0.4440   0.3914  -0.0000  -2.1434   2.9778
  37 F_b :4f2+   0.0000   0.0000  -2.5935   0.0000   0.0000
  41 F_b :5g0    0.0094  -0.0128  -0.0000   0.0087   0.0084
  42 F_b :5g2+   0.0000   0.0000   0.0131   0.0000   0.0000
  44 F_b :5g0   -0.0156  -0.0958  -0.0000  -0.0946  -0.1642
  45 F_b :5g2+  -0.0000  -0.0000  -0.0566  -0.0000  -0.0000
  47 F_b :5g0    0.0407  -0.1029   0.0000   0.3554  -0.9741
  48 F_b :5g2+  -0.0000  -0.0000   0.4253  -0.0000  -0.0000
  53 F_b :6h0   -0.0025   0.0111   0.0000   0.0142  -0.0235
  54 F_b :6h2+   0.0000   0.0000   0.0110   0.0000   0.0000
  56 F_b :6h0    0.0119   0.0104   0.0000  -0.0241   0.1871
  57 F_b :6h2+   0.0000   0.0000  -0.0281   0.0000   0.0000

 Molecular orbitals for symmetry species 6  (B2g)
 ------------------------------------------------

    Orbital         1        2        3        4        5        6        7
   1 F_b :2px    0.7450  -0.0149   0.0774   0.0851  -0.1437   0.0000   0.1741
   2 F_b :2px    0.0000  -0.0027  -0.0064  -0.0145  -0.0336  -0.0000   0.0401
   3 F_b :2px   -0.0024   0.0128   0.0368   0.0344   0.1506  -0.0000  -0.0942
   4 F_b :2px    0.0056  -0.0777  -0.2275  -0.0951  -0.8917  -0.0000   0.3694
   5 F_b :2px    0.0559  -1.4933  -5.2205   2.8912 -18.3606  -0.0000  -7.8539
   6 F_b :2px    0.0350  -3.1572 -13.7996  21.7622 -11.4082  -0.0000 -15.4250
   7 F_b :2px   -0.0010   3.4649   2.6164  -0.9465   1.2637  -0.0000   0.3177
   9 F_b :3d1+  -0.0002   0.0015   0.0048  -0.0069   0.0142   0.0000   0.0127
  10 F_b :3d1+   0.0012  -0.0084  -0.0306   0.0247  -0.0816   0.0000  -0.0745
  11 F_b :3d1+  -0.0013   0.0951   0.3099  -0.1577   1.0078  -0.0000   0.3630
  12 F_b :3d1+  -0.0244   0.8522   2.9389  -0.9612  10.7825   0.0000   2.4658
  13 F_b :3d1+  -0.0122   0.9178   4.0796  -8.1116   3.9049   0.0000   6.3062
  16 F_b :4f1+   0.0007   0.0012   0.0042  -0.0032   0.0114  -0.0000   0.0080
  17 F_b :4f3+  -0.0000   0.0000  -0.0000  -0.0000   0.0000   0.0158  -0.0000
  18 F_b :4f1+   0.0006  -0.0094  -0.0302   0.0172  -0.0931  -0.0000  -0.0451
  19 F_b :4f3+   0.0000  -0.0000   0.0000   0.0000  -0.0000  -0.0677   0.0000
  20 F_b :4f1+   0.0038  -0.1159  -0.3831   0.0978  -1.3451   0.0000  -0.2414
  21 F_b :4f3+  -0.0000   0.0000  -0.0000  -0.0000   0.0000   0.2342  -0.0000
  22 F_b :4f1+   0.0064  -0.2597  -0.9457   0.5804  -3.3050  -0.0000  -1.7254
  23 F_b :4f3+   0.0000  -0.0000   0.0000   0.0000  -0.0000  -1.4120   0.0000
  27 F_b :5g3+  -0.0000   0.0000  -0.0000  -0.0000   0.0000   0.0105  -0.0000
  28 F_b :5g1+   0.0000   0.0116   0.0365  -0.0061   0.1279   0.0000   0.0165
  29 F_b :5g3+   0.0000  -0.0000   0.0000   0.0000  -0.0000  -0.0414   0.0000
  30 F_b :5g1+  -0.0011   0.0385   0.1308  -0.0614   0.4342  -0.0000   0.1450
  31 F_b :5g3+   0.0000  -0.0000   0.0000   0.0000  -0.0000   0.1515   0.0000
  38 F_b :6h1+   0.0000  -0.0063  -0.0205   0.0053  -0.0668  -0.0000  -0.0120

    Orbital         8        9       10       11
   1 F_b :2px   -0.2366   0.0000   0.0757   0.2394
   2 F_b :2px    0.0371  -0.0000  -0.0590  -0.1245
   3 F_b :2px   -0.2534  -0.0000   0.3349   0.4552
   4 F_b :2px    1.4454  -0.0000  -1.3636  -2.5893
   5 F_b :2px   35.5868   0.0000 -13.4721 -11.7653
   6 F_b :2px   11.2896   0.0000   2.6810  -0.2921
   7 F_b :2px   -0.7769  -0.0000  -0.0147   0.3121
   9 F_b :3d1+  -0.0332  -0.0000  -0.0032  -0.0122
  10 F_b :3d1+   0.2051  -0.0000  -0.1302  -0.0785
  11 F_b :3d1+  -2.2880   0.0000   1.6850   0.7709
  12 F_b :3d1+ -20.3163  -0.0000   8.6344   7.7953
  13 F_b :3d1+  -4.2999  -0.0000  -1.1200  -0.0966
  16 F_b :4f1+  -0.0332   0.0000   0.0389  -0.0112
  17 F_b :4f3+   0.0000   0.0308  -0.0000  -0.0000
  18 F_b :4f1+   0.2338   0.0000  -0.3383   0.0243
  19 F_b :4f3+  -0.0000  -0.1107   0.0000   0.0000
  20 F_b :4f1+   2.8763  -0.0000  -2.4330  -1.9739
  21 F_b :4f3+   0.0000   0.3317  -0.0000  -0.0000
  22 F_b :4f1+   4.5734   0.0000  -0.7039  -1.4362
  23 F_b :4f3+  -0.0000  -1.0484   0.0000   0.0000
  26 F_b :5g1+   0.0070  -0.0000  -0.0510   0.0142
  27 F_b :5g3+   0.0000   0.0448  -0.0000  -0.0000
  28 F_b :5g1+  -0.3368  -0.0000   0.6376  -0.0273
  29 F_b :5g3+  -0.0000  -0.1819   0.0000   0.0000
  30 F_b :5g1+  -0.7492  -0.0000  -0.7411   1.2213
  31 F_b :5g3+  -0.0000   1.1999   0.0000   0.0000
  32 F_b :6h1+  -0.0041   0.0000   0.0122  -0.0048
  35 F_b :6h1+   0.0261   0.0000  -0.0691   0.0240
  36 F_b :6h3+   0.0000   0.0273  -0.0000  -0.0000
  38 F_b :6h1+   0.1223   0.0000  -0.0320  -0.1286
  39 F_b :6h3+   0.0000  -0.1026  -0.0000  -0.0000

 Molecular orbitals for symmetry species 7  (B3g)
 ------------------------------------------------

    Orbital         1        2        3        4        5        6        7
   1 F_b :2py    0.7450  -0.0149   0.0774   0.0851  -0.1437   0.0000   0.1741
   2 F_b :2py    0.0000  -0.0027  -0.0064  -0.0145  -0.0336   0.0000   0.0401
   3 F_b :2py   -0.0024   0.0128   0.0368   0.0344   0.1506  -0.0000  -0.0942
   4 F_b :2py    0.0056  -0.0777  -0.2275  -0.0951  -0.8917  -0.0000   0.3694
   5 F_b :2py    0.0559  -1.4933  -5.2205   2.8912 -18.3606   0.0000  -7.8539
   6 F_b :2py    0.0350  -3.1572 -13.7996  21.7622 -11.4082   0.0000 -15.4250
   7 F_b :2py   -0.0010   3.4649   2.6164  -0.9465   1.2637  -0.0000   0.3177
   9 F_b :3d1-  -0.0002   0.0015   0.0048  -0.0069   0.0142  -0.0000   0.0127
  10 F_b :3d1-   0.0012  -0.0084  -0.0306   0.0247  -0.0816  -0.0000  -0.0745
  11 F_b :3d1-  -0.0013   0.0951   0.3099  -0.1577   1.0078   0.0000   0.3630
  12 F_b :3d1-  -0.0244   0.8522   2.9389  -0.9612  10.7825   0.0000   2.4658
  13 F_b :3d1-  -0.0122   0.9178   4.0796  -8.1116   3.9049  -0.0000   6.3062
  16 F_b :4f3-   0.0000  -0.0000   0.0000   0.0000  -0.0000   0.0158   0.0000
  17 F_b :4f1-   0.0007   0.0012   0.0042  -0.0032   0.0114   0.0000   0.0080
  18 F_b :4f3-   0.0000   0.0000  -0.0000  -0.0000   0.0000  -0.0677  -0.0000
  19 F_b :4f1-   0.0006  -0.0094  -0.0302   0.0172  -0.0931   0.0000  -0.0451
  20 F_b :4f3-   0.0000  -0.0000   0.0000   0.0000  -0.0000   0.2342   0.0000
  21 F_b :4f1-   0.0038  -0.1159  -0.3831   0.0978  -1.3451  -0.0000  -0.2414
  22 F_b :4f3-   0.0000  -0.0000   0.0000   0.0000  -0.0000  -1.4120   0.0000
  23 F_b :4f1-   0.0064  -0.2597  -0.9457   0.5804  -3.3050   0.0000  -1.7254
  26 F_b :5g3-   0.0000  -0.0000   0.0000   0.0000  -0.0000   0.0105   0.0000
  28 F_b :5g3-  -0.0000   0.0000  -0.0000  -0.0000   0.0000  -0.0414  -0.0000
  29 F_b :5g1-   0.0000   0.0116   0.0365  -0.0061   0.1279  -0.0000   0.0165
  30 F_b :5g3-  -0.0000   0.0000  -0.0000  -0.0000   0.0000   0.1515  -0.0000
  31 F_b :5g1-  -0.0011   0.0385   0.1308  -0.0614   0.4342   0.0000   0.1450
  40 F_b :6h1-   0.0000  -0.0063  -0.0205   0.0053  -0.0668   0.0000  -0.0120

    Orbital         8        9       10       11
   1 F_b :2py   -0.2366   0.0000   0.0757   0.2394
   2 F_b :2py    0.0371  -0.0000  -0.0590  -0.1245
   3 F_b :2py   -0.2534  -0.0000   0.3349   0.4552
   4 F_b :2py    1.4454  -0.0000  -1.3636  -2.5893
   5 F_b :2py   35.5868  -0.0000 -13.4721 -11.7653
   6 F_b :2py   11.2896  -0.0000   2.6810  -0.2921
   7 F_b :2py   -0.7769  -0.0000  -0.0147   0.3121
   9 F_b :3d1-  -0.0332  -0.0000  -0.0032  -0.0122
  10 F_b :3d1-   0.2051   0.0000  -0.1302  -0.0785
  11 F_b :3d1-  -2.2880  -0.0000   1.6850   0.7709
  12 F_b :3d1- -20.3163   0.0000   8.6344   7.7953
  13 F_b :3d1-  -4.2999   0.0000  -1.1200  -0.0966
  16 F_b :4f3-  -0.0000   0.0308   0.0000   0.0000
  17 F_b :4f1-  -0.0332  -0.0000   0.0389  -0.0112
  18 F_b :4f3-  -0.0000  -0.1107   0.0000   0.0000
  19 F_b :4f1-   0.2338  -0.0000  -0.3383   0.0243
  20 F_b :4f3-  -0.0000   0.3317   0.0000   0.0000
  21 F_b :4f1-   2.8763  -0.0000  -2.4330  -1.9739
  22 F_b :4f3-  -0.0000  -1.0484   0.0000   0.0000
  23 F_b :4f1-   4.5734  -0.0000  -0.7039  -1.4362
  26 F_b :5g3-  -0.0000   0.0448   0.0000   0.0000
  27 F_b :5g1-   0.0070   0.0000  -0.0510   0.0142
  28 F_b :5g3-   0.0000  -0.1819  -0.0000  -0.0000
  29 F_b :5g1-  -0.3368   0.0000   0.6376  -0.0273
  30 F_b :5g3-   0.0000   1.1999  -0.0000  -0.0000
  31 F_b :5g1-  -0.7492   0.0000  -0.7411   1.2213
  34 F_b :6h1-  -0.0041   0.0000   0.0122  -0.0048
  36 F_b :6h3-  -0.0000   0.0273   0.0000   0.0000
  37 F_b :6h1-   0.0261  -0.0000  -0.0691   0.0240
  39 F_b :6h3-  -0.0000  -0.1026   0.0000   0.0000
  40 F_b :6h1-   0.1223  -0.0000  -0.0320  -0.1286

 Molecular orbitals for symmetry species 8  (Au )
 ------------------------------------------------

    Orbital         1        2        3        4        5        6        7
   2 F_b :3d2-   0.0004  -0.0020   0.0139  -0.0033   0.0000   0.0239   0.0965
   3 F_b :3d2-   0.0038   0.0208  -0.0429   0.1560   0.0000  -0.0942  -0.2312
   4 F_b :3d2-  -0.0306  -0.0640   0.5122  -0.7851   0.0000   0.4977   2.6464
   5 F_b :3d2-   0.2149  -2.4125   6.8733  -6.3840   0.0000   4.3465   6.0026
   6 F_b :3d2-   2.2443  -2.1537   0.9992  -0.0315   0.0000   1.0933   0.2200
   8 F_b :4f2-   0.0006  -0.0008  -0.0018   0.0116   0.0000   0.0026  -0.0333
   9 F_b :4f2-   0.0002   0.0017   0.0119  -0.0455   0.0000   0.0198   0.1675
  10 F_b :4f2-   0.1115   0.2836  -1.9000   3.7153   0.0000  -0.8635  -4.8485
  11 F_b :4f2-  -0.5603   2.5935  -3.4225   2.0269   0.0000  -2.4928  -1.9086
  14 F_b :5g4-   0.0000   0.0000   0.0000   0.0000   0.0644   0.0000   0.0000
  15 F_b :5g2-   0.0082  -0.0131  -0.0193   0.0580   0.0000   0.0482  -0.0290
  16 F_b :5g4-   0.0000   0.0000   0.0000   0.0000  -0.2578   0.0000   0.0000
  17 F_b :5g2-  -0.0472   0.0566   0.1802  -0.4555   0.0000  -0.2293   0.2969
  18 F_b :5g4-   0.0000   0.0000   0.0000   0.0000   1.0489   0.0000   0.0000
  19 F_b :5g2-   0.0375  -0.4253   1.1273  -1.6895   0.0000   1.6215   2.2852
  23 F_b :6h2-   0.0013  -0.0110   0.0264  -0.0324   0.0000   0.0263   0.0141
  24 F_b :6h4-   0.0000   0.0000   0.0000   0.0000  -0.0321   0.0000   0.0000
  25 F_b :6h2-   0.0153   0.0281  -0.2118   0.3862   0.0000  -0.0527  -0.2984

    Orbital         8        9       10
   2 F_b :3d2-  -0.0178   0.0000  -0.0059
   3 F_b :3d2-  -0.0294   0.0000   0.0218
   4 F_b :3d2-  -2.2183   0.0000  -0.6470
   5 F_b :3d2-  -2.7382   0.0000  -2.0423
   6 F_b :3d2-   0.2130   0.0000  -0.4726
   7 F_b :4f2-   0.0001   0.0000   0.0161
   8 F_b :4f2-  -0.0267   0.0000  -0.0698
   9 F_b :4f2-   0.0724   0.0000   0.5507
  10 F_b :4f2-   3.3030   0.0000   0.5938
  11 F_b :4f2-   0.5226   0.0000   1.1151
  12 F_b :5g4-   0.0000  -0.0224   0.0000
  13 F_b :5g2-  -0.0210   0.0000   0.0165
  14 F_b :5g4-   0.0000   0.1539   0.0000
  15 F_b :5g2-   0.1674   0.0000  -0.1181
  16 F_b :5g4-   0.0000  -0.8278   0.0000
  17 F_b :5g2-  -1.4027   0.0000   0.5825
  18 F_b :5g4-   0.0000   0.6523   0.0000
  19 F_b :5g2-  -0.9352   0.0000  -0.9496
  20 F_b :6h4-   0.0000  -0.0284   0.0000
  21 F_b :6h2-   0.0181   0.0000   0.0345
  22 F_b :6h4-   0.0000   0.1357   0.0000
  23 F_b :6h2-  -0.0874   0.0000  -0.1633
  24 F_b :6h4-   0.0000  -0.6582   0.0000
  25 F_b :6h2-   1.0851   0.0000   0.7390

  Total CPU  time used in SIRIUS :  1 minute  35 seconds
  Total wall time used in SIRIUS :  1 minute  35 seconds

 
     Date and time (Linux)  : Wed Jan 11 14:19:29 2023
     Host name              : cn040                                   


                     .---------------------------------------.
                     | End of Wave Function Section (SIRIUS) |
                     `---------------------------------------'



                 .------------------------------------------------.
                 | Starting in Dynamic Property Section (RESPONS) |
                 `------------------------------------------------'


 ----------------------------------------------------------------------------------------
  RESPONSE  -  an MCSCF, MC-srDFT, DFT, SOPPA and SOPPA-srDFT response property program
 ----------------------------------------------------------------------------------------


 -------- OUTPUT FROM RESPONSE INPUT PROCESSING --------




 Linear Response calculation
 ---------------------------

 Print level                                    : IPRLR  =   2
 Maximum number of iterations                   : MAXITL =  60
 Threshold for relative convergence             : THCLR  = 1.000D-03
 Maximum iterations in optimal orbital algorithm: MAXITO =   5

  9 B-frequencies  0.000000D+00  1.101744D-02  2.203487D-02  3.305231D-02  4.406975D-02
  5.508719D-02  6.610463D-02  7.712206D-02  8.813950D-02

    1 second order properties calculated with symmetry no.    2 and labels:

          XDIPLEN 

    1 second order properties calculated with symmetry no.    3 and labels:

          YDIPLEN 

    1 second order properties calculated with symmetry no.    5 and labels:

          ZDIPLEN 


   SCF energy         :     -198.773015785317398
 -- inactive part     :     -229.131015305586061
 -- nuclear repulsion :       30.357999520268653


                     ***************************************
                     *** RHF response calculation (TDHF) ***
                     ***************************************

 ----------------------------------------------------------------
 ----- Linear response calculation
[...]
 (dimension of paired reduced space:   68)
 RSP solution vector no.    1; norm of residual   2.87D-04
 RSP solution vector no.    2; norm of residual   2.88D-04
 RSP solution vector no.    3; norm of residual   2.92D-04
 RSP solution vector no.    4; norm of residual   2.98D-04
 RSP solution vector no.    5; norm of residual   3.06D-04
 RSP solution vector no.    6; norm of residual   3.19D-04
 RSP solution vector no.    7; norm of residual   3.35D-04
 RSP solution vector no.    8; norm of residual   3.56D-04
 RSP solution vector no.    9; norm of residual   3.84D-04

 *** RSPCTL MICROITERATIONS CONVERGED


           Final output of second order properties from linear response
           ------------------------------------------------------------


@ Spin symmetry of operators: singlet

 Note that minus the linear response function: - << A; B >>(omega) is printed.
 The results are of quadratic accuracy using Sellers formula.

@ FREQUENCY INDEPENDENT SECOND ORDER PROPERTIES

@ -<< XDIPLEN  ; XDIPLEN  >> =  5.563229927680E+00

@ FREQUENCY DEPENDENT SECOND ORDER PROPERTIES WITH FREQUENCY :

@    a.u.:  1.1017437D-02
@    cm-1:  2.4180480D+03
@    eV  :  2.9979972D-01
@  kJ/mol:  2.8926278D+01
@    nm  :  4.1355672D+03

@ -<< XDIPLEN  ; XDIPLEN  >> =  5.563970173953E+00

@ FREQUENCY DEPENDENT SECOND ORDER PROPERTIES WITH FREQUENCY :

@    a.u.:  2.2034875D-02
@    cm-1:  4.8360960D+03
@    eV  :  5.9959945D-01
@  kJ/mol:  5.7852555D+01
@    nm  :  2.0677836D+03

@ -<< XDIPLEN  ; XDIPLEN  >> =  5.566193440537E+00

@ FREQUENCY DEPENDENT SECOND ORDER PROPERTIES WITH FREQUENCY :

@    a.u.:  3.3052313D-02
@    cm-1:  7.2541440D+03
@    eV  :  8.9939917D-01
@  kJ/mol:  8.6778833D+01
@    nm  :  1.3785224D+03

@ -<< XDIPLEN  ; XDIPLEN  >> =  5.569907409772E+00

@ FREQUENCY DEPENDENT SECOND ORDER PROPERTIES WITH FREQUENCY :

@    a.u.:  4.4069750D-02
@    cm-1:  9.6721920D+03
@    eV  :  1.1991989D+00
@  kJ/mol:  1.1570511D+02
@    nm  :  1.0338918D+03

@ -<< XDIPLEN  ; XDIPLEN  >> =  5.575125235549E+00

@ FREQUENCY DEPENDENT SECOND ORDER PROPERTIES WITH FREQUENCY :

@    a.u.:  5.5087187D-02
@    cm-1:  1.2090240D+04
@    eV  :  1.4989986D+00
@  kJ/mol:  1.4463139D+02
@    nm  :  8.2711344D+02

@ -<< XDIPLEN  ; XDIPLEN  >> =  5.581866145449E+00

@ FREQUENCY DEPENDENT SECOND ORDER PROPERTIES WITH FREQUENCY :

@    a.u.:  6.6104625D-02
@    cm-1:  1.4508288D+04
@    eV  :  1.7987983D+00
@  kJ/mol:  1.7355767D+02
@    nm  :  6.8926120D+02

@ -<< XDIPLEN  ; XDIPLEN  >> =  5.590156469934E+00

@ FREQUENCY DEPENDENT SECOND ORDER PROPERTIES WITH FREQUENCY :

@    a.u.:  7.7122062D-02
@    cm-1:  1.6926336D+04
@    eV  :  2.0985981D+00
@  kJ/mol:  2.0248394D+02
@    nm  :  5.9079531D+02

@ -<< XDIPLEN  ; XDIPLEN  >> =  5.600031380015E+00

@ FREQUENCY DEPENDENT SECOND ORDER PROPERTIES WITH FREQUENCY :

@    a.u.:  8.8139500D-02
@    cm-1:  1.9344384D+04
@    eV  :  2.3983978D+00
@  kJ/mol:  2.3141022D+02
@    nm  :  5.1694590D+02

@ -<< XDIPLEN  ; XDIPLEN  >> =  5.611537903776E+00


 Time used in linear response calculation is     68.17 CPU seconds for symmetry 2
 ----------------------------------------------------------------
 ----- Linear response calculation
 ----- Symmetry of excitation/property operator(s)    3  ( B2u)
 ----------------------------------------------------------------

 Number of excitations of this symmetry            0
 Number of response properties of this symmetry    1
 Number of C6/C8 properties of this symmetry       0


 Perturbation symmetry.     KSYMOP:           3
 Perturbation spin symmetry.TRPLET:           F
 Orbital variables.         KZWOPT:         356
 Configuration variables.   KZCONF:           0
 Total number of variables. KZVAR :         356


 RSPLR -- linear response calculation for symmetry 3  ( B2u)
 RSPLR -- operator label : YDIPLEN 
 RSPLR -- operator spin  :   0
 RSPLR -- frequencies    :     0.000000  0.011017  0.022035  0.033052  0.044070
                               0.055087  0.066105  0.077122  0.088139



 ---  SOLVING SETS OF LINEAR EQUATIONS FOR LINEAR RESPONSE PROPERTIES ---

 Operator symmetry = 3  ( B2u); triplet =   F

RSPORT:    2 out of    9 new trial vectors linear dependent

 ** RSPCTL MICROITERATION NUMBER    1

       No.  Residual tot.,    conf., and orb.    Bnorm      Frequency 
      ----------------------------------------------------------------
         1    6.69108D-01  0.00D+00  6.69D-01  1.52D+00    0.00000D+00
         2    6.69181D-01  0.00D+00  6.69D-01  1.52D+00    1.10174D-02
         3    6.69399D-01  0.00D+00  6.69D-01  1.53D+00    2.20349D-02
         4    6.69764D-01  0.00D+00  6.70D-01  1.53D+00    3.30523D-02
         5    6.70277D-01  0.00D+00  6.70D-01  1.53D+00    4.40697D-02
         6    6.70938D-01  0.00D+00  6.71D-01  1.53D+00    5.50872D-02
         7    6.71751D-01  0.00D+00  6.72D-01  1.54D+00    6.61046D-02
         8    6.72716D-01  0.00D+00  6.73D-01  1.54D+00    7.71221D-02
         9    6.73839D-01  0.00D+00  6.74D-01  1.55D+00    8.81395D-02

 ** RSPCTL MICROITERATION NUMBER    2

       No.  Residual tot.,    conf., and orb.    Bnorm      Frequency 
      ----------------------------------------------------------------
         1    8.27225D-02  0.00D+00  8.27D-02  1.57D+00    0.00000D+00
         2    8.27891D-02  0.00D+00  8.28D-02  1.57D+00    1.10174D-02
         3    8.29919D-02  0.00D+00  8.30D-02  1.57D+00    2.20349D-02
         4    8.33406D-02  0.00D+00  8.33D-02  1.57D+00    3.30523D-02
         5    8.38529D-02  0.00D+00  8.39D-02  1.58D+00    4.40697D-02
         6    8.45568D-02  0.00D+00  8.46D-02  1.58D+00    5.50872D-02
         7    8.54949D-02  0.00D+00  8.55D-02  1.59D+00    6.61046D-02
         8    8.67322D-02  0.00D+00  8.67D-02  1.59D+00    7.71221D-02
         9    8.83689D-02  0.00D+00  8.84D-02  1.60D+00    8.81395D-02

 ** RSPCTL MICROITERATION NUMBER    3

       No.  Residual tot.,    conf., and orb.    Bnorm      Frequency 
      ----------------------------------------------------------------
         1    5.75363D-03  0.00D+00  5.75D-03  1.57D+00    0.00000D+00
         2    5.76985D-03  0.00D+00  5.77D-03  1.57D+00    1.10174D-02
         3    5.81933D-03  0.00D+00  5.82D-03  1.57D+00    2.20349D-02
         4    5.90466D-03  0.00D+00  5.90D-03  1.57D+00    3.30523D-02
         5    6.03053D-03  0.00D+00  6.03D-03  1.58D+00    4.40697D-02
         6    6.20441D-03  0.00D+00  6.20D-03  1.58D+00    5.50872D-02
         7    6.43777D-03  0.00D+00  6.44D-03  1.59D+00    6.61046D-02
         8    6.74814D-03  0.00D+00  6.75D-03  1.59D+00    7.71221D-02
         9    7.16283D-03  0.00D+00  7.16D-03  1.60D+00    8.81395D-02

 ** RSPCTL MICROITERATION NUMBER    4

       No.  Residual tot.,    conf., and orb.    Bnorm      Frequency 
      ----------------------------------------------------------------
         1    4.10495D-04  0.00D+00  4.10D-04  1.57D+00    0.00000D+00
         2    4.12576D-04  0.00D+00  4.13D-04  1.57D+00    1.10174D-02
         3    4.18919D-04  0.00D+00  4.19D-04  1.57D+00    2.20349D-02
         4    4.29846D-04  0.00D+00  4.30D-04  1.57D+00    3.30523D-02
         5    4.45940D-04  0.00D+00  4.46D-04  1.58D+00    4.40697D-02
         6    4.68130D-04  0.00D+00  4.68D-04  1.58D+00    5.50872D-02
         7    4.97844D-04  0.00D+00  4.98D-04  1.59D+00    6.61046D-02
         8    5.37261D-04  0.00D+00  5.37D-04  1.59D+00    7.71221D-02
         9    5.89774D-04  0.00D+00  5.90D-04  1.60D+00    8.81395D-02

 *** THE REQUESTED    9 SOLUTION VECTORS CONVERGED

 Convergence of RSP solution vectors, threshold = 1.00D-03
 ---------------------------------------------------------------
 (dimension of paired reduced space:   68)
 RSP solution vector no.    1; norm of residual   2.62D-04
 RSP solution vector no.    2; norm of residual   2.63D-04
 RSP solution vector no.    3; norm of residual   2.67D-04
 RSP solution vector no.    4; norm of residual   2.73D-04
 RSP solution vector no.    5; norm of residual   2.83D-04
 RSP solution vector no.    6; norm of residual   2.96D-04
 RSP solution vector no.    7; norm of residual   3.14D-04
 RSP solution vector no.    8; norm of residual   3.37D-04
 RSP solution vector no.    9; norm of residual   3.68D-04

 *** RSPCTL MICROITERATIONS CONVERGED


           Final output of second order properties from linear response
           ------------------------------------------------------------


@ Spin symmetry of operators: singlet

 Note that minus the linear response function: - << A; B >>(omega) is printed.
 The results are of quadratic accuracy using Sellers formula.

@ FREQUENCY INDEPENDENT SECOND ORDER PROPERTIES

@ -<< YDIPLEN  ; YDIPLEN  >> =  5.563229929426E+00

@ FREQUENCY DEPENDENT SECOND ORDER PROPERTIES WITH FREQUENCY :

@    a.u.:  1.1017437D-02
@    cm-1:  2.4180480D+03
@    eV  :  2.9979972D-01
@  kJ/mol:  2.8926278D+01
@    nm  :  4.1355672D+03

@ -<< YDIPLEN  ; YDIPLEN  >> =  5.563970175716E+00

@ FREQUENCY DEPENDENT SECOND ORDER PROPERTIES WITH FREQUENCY :

@    a.u.:  2.2034875D-02
@    cm-1:  4.8360960D+03
@    eV  :  5.9959945D-01
@  kJ/mol:  5.7852555D+01
@    nm  :  2.0677836D+03

@ -<< YDIPLEN  ; YDIPLEN  >> =  5.566193442351E+00

@ FREQUENCY DEPENDENT SECOND ORDER PROPERTIES WITH FREQUENCY :

@    a.u.:  3.3052313D-02
@    cm-1:  7.2541440D+03
@    eV  :  8.9939917D-01
@  kJ/mol:  8.6778833D+01
@    nm  :  1.3785224D+03

@ -<< YDIPLEN  ; YDIPLEN  >> =  5.569907411675E+00

@ FREQUENCY DEPENDENT SECOND ORDER PROPERTIES WITH FREQUENCY :

@    a.u.:  4.4069750D-02
@    cm-1:  9.6721920D+03
@    eV  :  1.1991989D+00
@  kJ/mol:  1.1570511D+02
@    nm  :  1.0338918D+03

@ -<< YDIPLEN  ; YDIPLEN  >> =  5.575125237586E+00

@ FREQUENCY DEPENDENT SECOND ORDER PROPERTIES WITH FREQUENCY :

@    a.u.:  5.5087187D-02
@    cm-1:  1.2090240D+04
@    eV  :  1.4989986D+00
@  kJ/mol:  1.4463139D+02
@    nm  :  8.2711344D+02

@ -<< YDIPLEN  ; YDIPLEN  >> =  5.581866147674E+00

@ FREQUENCY DEPENDENT SECOND ORDER PROPERTIES WITH FREQUENCY :

@    a.u.:  6.6104625D-02
@    cm-1:  1.4508288D+04
@    eV  :  1.7987983D+00
@  kJ/mol:  1.7355767D+02
@    nm  :  6.8926120D+02

@ -<< YDIPLEN  ; YDIPLEN  >> =  5.590156472420E+00

@ FREQUENCY DEPENDENT SECOND ORDER PROPERTIES WITH FREQUENCY :

@    a.u.:  7.7122062D-02
@    cm-1:  1.6926336D+04
@    eV  :  2.0985981D+00
@  kJ/mol:  2.0248394D+02
@    nm  :  5.9079531D+02

@ -<< YDIPLEN  ; YDIPLEN  >> =  5.600031382861E+00

@ FREQUENCY DEPENDENT SECOND ORDER PROPERTIES WITH FREQUENCY :

@    a.u.:  8.8139500D-02
@    cm-1:  1.9344384D+04
@    eV  :  2.3983978D+00
@  kJ/mol:  2.3141022D+02
@    nm  :  5.1694590D+02

@ -<< YDIPLEN  ; YDIPLEN  >> =  5.611537907127E+00


 Time used in linear response calculation is     68.07 CPU seconds for symmetry 3
 ----------------------------------------------------------------
 ----- Linear response calculation
 ----- Symmetry of excitation/property operator(s)    5  ( B1u)
 ----------------------------------------------------------------

 Number of excitations of this symmetry            0
 Number of response properties of this symmetry    1
 Number of C6/C8 properties of this symmetry       0


 Perturbation symmetry.     KSYMOP:           5
 Perturbation spin symmetry.TRPLET:           F
 Orbital variables.         KZWOPT:         434
 Configuration variables.   KZCONF:           0
 Total number of variables. KZVAR :         434


 RSPLR -- linear response calculation for symmetry 5  ( B1u)
 RSPLR -- operator label : ZDIPLEN 
 RSPLR -- operator spin  :   0
 RSPLR -- frequencies    :     0.000000  0.011017  0.022035  0.033052  0.044070
                               0.055087  0.066105  0.077122  0.088139



 ---  SOLVING SETS OF LINEAR EQUATIONS FOR LINEAR RESPONSE PROPERTIES ---

 Operator symmetry = 5  ( B1u); triplet =   F

RSPORT:    2 out of    9 new trial vectors linear dependent

 ** RSPCTL MICROITERATION NUMBER    1

       No.  Residual tot.,    conf., and orb.    Bnorm      Frequency 
      ----------------------------------------------------------------
         1    3.73838D+00  0.00D+00  3.74D+00  2.41D+00    0.00000D+00
         2    3.73968D+00  0.00D+00  3.74D+00  2.41D+00    1.10174D-02
         3    3.74358D+00  0.00D+00  3.74D+00  2.41D+00    2.20349D-02
         4    3.75009D+00  0.00D+00  3.75D+00  2.42D+00    3.30523D-02
         5    3.75924D+00  0.00D+00  3.76D+00  2.43D+00    4.40697D-02
         6    3.77108D+00  0.00D+00  3.77D+00  2.44D+00    5.50872D-02
         7    3.78564D+00  0.00D+00  3.79D+00  2.46D+00    6.61046D-02
         8    3.80301D+00  0.00D+00  3.80D+00  2.48D+00    7.71221D-02
         9    3.82325D+00  0.00D+00  3.82D+00  2.50D+00    8.81395D-02

 ** RSPCTL MICROITERATION NUMBER    2

       No.  Residual tot.,    conf., and orb.    Bnorm      Frequency 
      ----------------------------------------------------------------
         1    1.02022D+00  0.00D+00  1.02D+00  3.36D+00    0.00000D+00
         2    1.02081D+00  0.00D+00  1.02D+00  3.36D+00    1.10174D-02
         3    1.02258D+00  0.00D+00  1.02D+00  3.37D+00    2.20349D-02
         4    1.02555D+00  0.00D+00  1.03D+00  3.38D+00    3.30523D-02
         5    1.02974D+00  0.00D+00  1.03D+00  3.40D+00    4.40697D-02
         6    1.03516D+00  0.00D+00  1.04D+00  3.43D+00    5.50872D-02
         7    1.04187D+00  0.00D+00  1.04D+00  3.46D+00    6.61046D-02
         8    1.04991D+00  0.00D+00  1.05D+00  3.49D+00    7.71221D-02
         9    1.05933D+00  0.00D+00  1.06D+00  3.53D+00    8.81395D-02

 ** RSPCTL MICROITERATION NUMBER    3

       No.  Residual tot.,    conf., and orb.    Bnorm      Frequency 
      ----------------------------------------------------------------
         1    1.32935D-01  0.00D+00  1.33D-01  3.42D+00    0.00000D+00
         2    1.33029D-01  0.00D+00  1.33D-01  3.43D+00    1.10174D-02
         3    1.33314D-01  0.00D+00  1.33D-01  3.44D+00    2.20349D-02
         4    1.33790D-01  0.00D+00  1.34D-01  3.45D+00    3.30523D-02
         5    1.34462D-01  0.00D+00  1.34D-01  3.47D+00    4.40697D-02
         6    1.35334D-01  0.00D+00  1.35D-01  3.49D+00    5.50872D-02
         7    1.36412D-01  0.00D+00  1.36D-01  3.52D+00    6.61046D-02
         8    1.37704D-01  0.00D+00  1.38D-01  3.56D+00    7.71221D-02
         9    1.39220D-01  0.00D+00  1.39D-01  3.61D+00    8.81395D-02

 ** RSPCTL MICROITERATION NUMBER    4

       No.  Residual tot.,    conf., and orb.    Bnorm      Frequency 
      ----------------------------------------------------------------
         1    8.92670D-03  0.00D+00  8.93D-03  3.43D+00    0.00000D+00
         2    8.93410D-03  0.00D+00  8.93D-03  3.43D+00    1.10174D-02
         3    8.95637D-03  0.00D+00  8.96D-03  3.44D+00    2.20349D-02
         4    8.99367D-03  0.00D+00  8.99D-03  3.45D+00    3.30523D-02
         5    9.04629D-03  0.00D+00  9.05D-03  3.47D+00    4.40697D-02
         6    9.11461D-03  0.00D+00  9.11D-03  3.49D+00    5.50872D-02
         7    9.19918D-03  0.00D+00  9.20D-03  3.53D+00    6.61046D-02
         8    9.30066D-03  0.00D+00  9.30D-03  3.56D+00    7.71221D-02
         9    9.41984D-03  0.00D+00  9.42D-03  3.61D+00    8.81395D-02

 ** RSPCTL MICROITERATION NUMBER    5

       No.  Residual tot.,    conf., and orb.    Bnorm      Frequency 
      ----------------------------------------------------------------
         1    6.64621D-04  0.00D+00  6.65D-04  3.43D+00    0.00000D+00
         2    6.65154D-04  0.00D+00  6.65D-04  3.43D+00    1.10174D-02
         3    6.66755D-04  0.00D+00  6.67D-04  3.44D+00    2.20349D-02
         4    6.69439D-04  0.00D+00  6.69D-04  3.45D+00    3.30523D-02
         5    6.73227D-04  0.00D+00  6.73D-04  3.47D+00    4.40697D-02
         6    6.78149D-04  0.00D+00  6.78D-04  3.49D+00    5.50872D-02
         7    6.84247D-04  0.00D+00  6.84D-04  3.53D+00    6.61046D-02
         8    6.91573D-04  0.00D+00  6.92D-04  3.56D+00    7.71221D-02
         9    7.00192D-04  0.00D+00  7.00D-04  3.61D+00    8.81395D-02

 *** THE REQUESTED    9 SOLUTION VECTORS CONVERGED

 Convergence of RSP solution vectors, threshold = 1.00D-03
 ---------------------------------------------------------------
 (dimension of paired reduced space:   86)
 RSP solution vector no.    1; norm of residual   1.94D-04
 RSP solution vector no.    2; norm of residual   1.94D-04
 RSP solution vector no.    3; norm of residual   1.94D-04
 RSP solution vector no.    4; norm of residual   1.94D-04
 RSP solution vector no.    5; norm of residual   1.94D-04
 RSP solution vector no.    6; norm of residual   1.94D-04
 RSP solution vector no.    7; norm of residual   1.94D-04
 RSP solution vector no.    8; norm of residual   1.94D-04
 RSP solution vector no.    9; norm of residual   1.94D-04

 *** RSPCTL MICROITERATIONS CONVERGED


           Final output of second order properties from linear response
           ------------------------------------------------------------


@ Spin symmetry of operators: singlet

 Note that minus the linear response function: - << A; B >>(omega) is printed.
 The results are of quadratic accuracy using Sellers formula.

@ FREQUENCY INDEPENDENT SECOND ORDER PROPERTIES

@ -<< ZDIPLEN  ; ZDIPLEN  >> =  1.464244530008E+01

@ FREQUENCY DEPENDENT SECOND ORDER PROPERTIES WITH FREQUENCY :

@    a.u.:  1.1017437D-02
@    cm-1:  2.4180480D+03
@    eV  :  2.9979972D-01
@  kJ/mol:  2.8926278D+01
@    nm  :  4.1355672D+03

@ -<< ZDIPLEN  ; ZDIPLEN  >> =  1.464854938777E+01

@ FREQUENCY DEPENDENT SECOND ORDER PROPERTIES WITH FREQUENCY :

@    a.u.:  2.2034875D-02
@    cm-1:  4.8360960D+03
@    eV  :  5.9959945D-01
@  kJ/mol:  5.7852555D+01
@    nm  :  2.0677836D+03

@ -<< ZDIPLEN  ; ZDIPLEN  >> =  1.466689975484E+01

@ FREQUENCY DEPENDENT SECOND ORDER PROPERTIES WITH FREQUENCY :

@    a.u.:  3.3052313D-02
@    cm-1:  7.2541440D+03
@    eV  :  8.9939917D-01
@  kJ/mol:  8.6778833D+01
@    nm  :  1.3785224D+03

@ -<< ZDIPLEN  ; ZDIPLEN  >> =  1.469761133502E+01

@ FREQUENCY DEPENDENT SECOND ORDER PROPERTIES WITH FREQUENCY :

@    a.u.:  4.4069750D-02
@    cm-1:  9.6721920D+03
@    eV  :  1.1991989D+00
@  kJ/mol:  1.1570511D+02
@    nm  :  1.0338918D+03

@ -<< ZDIPLEN  ; ZDIPLEN  >> =  1.474087777603E+01

@ FREQUENCY DEPENDENT SECOND ORDER PROPERTIES WITH FREQUENCY :

@    a.u.:  5.5087187D-02
@    cm-1:  1.2090240D+04
@    eV  :  1.4989986D+00
@  kJ/mol:  1.4463139D+02
@    nm  :  8.2711344D+02

@ -<< ZDIPLEN  ; ZDIPLEN  >> =  1.479697464507E+01

@ FREQUENCY DEPENDENT SECOND ORDER PROPERTIES WITH FREQUENCY :

@    a.u.:  6.6104625D-02
@    cm-1:  1.4508288D+04
@    eV  :  1.7987983D+00
@  kJ/mol:  1.7355767D+02
@    nm  :  6.8926120D+02

@ -<< ZDIPLEN  ; ZDIPLEN  >> =  1.486626405645E+01

@ FREQUENCY DEPENDENT SECOND ORDER PROPERTIES WITH FREQUENCY :

@    a.u.:  7.7122062D-02
@    cm-1:  1.6926336D+04
@    eV  :  2.0985981D+00
@  kJ/mol:  2.0248394D+02
@    nm  :  5.9079531D+02

@ -<< ZDIPLEN  ; ZDIPLEN  >> =  1.494920086979E+01

@ FREQUENCY DEPENDENT SECOND ORDER PROPERTIES WITH FREQUENCY :

@    a.u.:  8.8139500D-02
@    cm-1:  1.9344384D+04
@    eV  :  2.3983978D+00
@  kJ/mol:  2.3141022D+02
@    nm  :  5.1694590D+02

@ -<< ZDIPLEN  ; ZDIPLEN  >> =  1.504634066272E+01


 Time used in linear response calculation is     85.55 CPU seconds for symmetry 5

  Total CPU  time used in RESPONSE:  3 minutes 42 seconds
  Total wall time used in RESPONSE:  3 minutes 42 seconds


                   .-------------------------------------------.
                   | End of Dynamic Property Section (RESPONS) |
                   `-------------------------------------------'



 PLTORB knows S,P,D,F,G shells. The basis set contains orbital(s) with higher angular momentum,
 and the writing of MOLPLT file is thus abandoned.

  Total CPU  time used in DALTON:  5 minutes 19 seconds
  Total wall time used in DALTON:  5 minutes 19 seconds

 
     Date and time (Linux)  : Wed Jan 11 14:23:11 2023
     Host name              : cn040                                   
