

     ************************************************************************
     *************** Dalton - An Electronic Structure Program ***************
     ************************************************************************

    This is output from DALTON release Dalton2020.0 (2020)
         ( Web site: http://daltonprogram.org )

   ----------------------------------------------------------------------------

    NOTE:
     
    Dalton is an experimental code for the evaluation of molecular
    properties using (MC)SCF, DFT, CI, and CC wave functions.
    The authors accept no responsibility for the performance of
    the code or for the correctness of the results.
     
    The code (in whole or part) is provided under a licence and
    is not to be reproduced for further distribution without
    the written permission of the authors or their representatives.
     
    See the home page "http://daltonprogram.org" for further information.
     
    If results obtained with this code are published,
    the appropriate citations would be both of:
     
       K. Aidas, C. Angeli, K. L. Bak, V. Bakken, R. Bast,
       L. Boman, O. Christiansen, R. Cimiraglia, S. Coriani,
       P. Dahle, E. K. Dalskov, U. Ekstroem,
       T. Enevoldsen, J. J. Eriksen, P. Ettenhuber, B. Fernandez,
       L. Ferrighi, H. Fliegl, L. Frediani, K. Hald, A. Halkier,
       C. Haettig, H. Heiberg, T. Helgaker, A. C. Hennum,
       H. Hettema, E. Hjertenaes, S. Hoest, I.-M. Hoeyvik,
       M. F. Iozzi, B. Jansik, H. J. Aa. Jensen, D. Jonsson,
       P. Joergensen, J. Kauczor, S. Kirpekar,
       T. Kjaergaard, W. Klopper, S. Knecht, R. Kobayashi, H. Koch,
       J. Kongsted, A. Krapp, K. Kristensen, A. Ligabue,
       O. B. Lutnaes, J. I. Melo, K. V. Mikkelsen, R. H. Myhre,
       C. Neiss, C. B. Nielsen, P. Norman, J. Olsen,
       J. M. H. Olsen, A. Osted, M. J. Packer, F. Pawlowski,
       T. B. Pedersen, P. F. Provasi, S. Reine, Z. Rinkevicius,
       T. A. Ruden, K. Ruud, V. Rybkin, P. Salek, C. C. M. Samson,
       A. Sanchez de Meras, T. Saue, S. P. A. Sauer,
       B. Schimmelpfennig, K. Sneskov, A. H. Steindal,
       K. O. Sylvester-Hvid, P. R. Taylor, A. M. Teale,
       E. I. Tellgren, D. P. Tew, A. J. Thorvaldsen, L. Thoegersen,
       O. Vahtras, M. A. Watson, D. J. D. Wilson, M. Ziolkowski
       and H. Agren,
       "The Dalton quantum chemistry program system",
       WIREs Comput. Mol. Sci. 2014, 4:269–284 (doi: 10.1002/wcms.1172)
     
    and
     
       Dalton, a molecular electronic structure program,
       Release Dalton2020.0 (2020), see http://daltonprogram.org
   ----------------------------------------------------------------------------

    Authors in alphabetical order (Major contribution(s) in parenthesis):

  Kestutis Aidas,           Vilnius University,           Lithuania   (QM/MM)
  Celestino Angeli,         University of Ferrara,        Italy       (NEVPT2)
  Keld L. Bak,              UNI-C,                        Denmark     (AOSOPPA, non-adiabatic coupling, magnetic properties)
  Vebjoern Bakken,          University of Oslo,           Norway      (DALTON; geometry optimizer, symmetry detection)
  Radovan Bast,             UiT The Arctic U. of Norway,  Norway      (DALTON installation and execution frameworks)
  Pablo Baudin,             University of Valencia,       Spain       (Cholesky excitation energies)
  Linus Boman,              NTNU,                         Norway      (Cholesky decomposition and subsystems)
  Bruno N. Cabral Tenorio,  Technical Univ. of Denmark,   Denmark     (Lanczos-based CC methods)
  Ove Christiansen,         Aarhus University,            Denmark     (CC module)
  Renzo Cimiraglia,         University of Ferrara,        Italy       (NEVPT2)
  Sonia Coriani,            Technical Univ. of Denmark,   Denmark     (CC and RESPONS modules)
  Janusz Cukras,            University of Warsaw,         Poland      (MChD in RESPONS)
  Paal Dahle,               University of Oslo,           Norway      (Parallelization)
  Erik K. Dalskov,          UNI-C,                        Denmark     (SOPPA)
  Thomas Enevoldsen,        Univ. of Southern Denmark,    Denmark     (SOPPA)
  Janus J. Eriksen,         Aarhus University,            Denmark     (Polarizable embedding, TDA)
  Rasmus Faber,             Technical Univ. of Denmark,   Denmark     (Vib.avg. NMR w. SOPPA, parallel AO-SOPPA, CVS-CC and EOMCC)
  Tobias Fahleson,          KTH Stockholm,                Sweden      (Damped cubic response)
  Berta Fernandez,          U. of Santiago de Compostela, Spain       (Doublet spin, ESR in RESPONS)
  Lara Ferrighi,            Aarhus University,            Denmark     (PCM Cubic response)
  Heike Fliegl,             University of Oslo,           Norway      (CCSD(R12))
  Luca Frediani,            UiT The Arctic U. of Norway,  Norway      (PCM)
  Emmanuel Fromager,        Univ. Strasbourg,             France      (MC-srDFT)
  Bin Gao,                  UiT The Arctic U. of Norway,  Norway      (Gen1Int library)
  Andre S. P. Gomes,        CNRS/Universite de Lille,     France      (Frozen density embedding)
  Christof Haettig,         Ruhr-University Bochum,       Germany     (CC module)
  Kasper Hald,              Aarhus University,            Denmark     (CC module)
  Asger Halkier,            Aarhus University,            Denmark     (CC module)
  Frederik Beyer Hansen,    University of Copenhagen,     Denmark     (Parallel AO-SOPPA)
  Erik D. Hedegaard,        Univ. of Southern Denmark,    Denmark     (Polarizable embedding, QM/MM, and MC-srDFT)
  Hanne Heiberg,            University of Oslo,           Norway      (Geometry analysis, selected one-electron integrals)
  Trygve Helgaker,          University of Oslo,           Norway      (DALTON; ABACUS, ERI, DFT modules, London, and much more)
  Alf Christian Hennum,     University of Oslo,           Norway      (Parity violation)
  Hinne Hettema,            University of Auckland,       New Zealand (Quadratic response in RESPONS; SIRIUS supersymmetry)
  Eirik Hjertenaes,         NTNU,                         Norway      (Cholesky decomposition)
  Pi A. B. Haase,           University of Copenhagen,     Denmark     (Triplet AO-SOPPA)
  Maria Francesca Iozzi,    University of Oslo,           Norway      (RPA)
  Christoph Jacob           TU Braunschweig               Germany     (Frozen density embedding)
  Brano Jansik              Technical Univ. of Ostrava    Czech Rep.  (DFT cubic response)
  Hans Joergen Aa. Jensen,  Univ. of Southern Denmark,    Denmark     (DALTON; SIRIUS, RESPONS, ABACUS, MC-srDFT, and much more)
  Dan Jonsson,              UiT The Arctic U. of Norway,  Norway      (Cubic response in RESPONS module)
  Poul Joergensen,          Aarhus University,            Denmark     (RESPONS, ABACUS, and CC modules)
  Maciej Kaminski,          University of Warsaw,         Poland      (CPPh in RESPONS)
  Joanna Kauczor,           Linkoeping University,        Sweden      (Complex polarization propagator (CPP) module)
  Sheela Kirpekar,          Univ. of Southern Denmark,    Denmark     (Mass-velocity & Darwin integrals)
  Erik Kjellgren,           Univ. of Southern Denmark,    Denmark     (MC-srDFT)
  Wim Klopper,              KIT Karlsruhe,                Germany     (R12 code in CC, SIRIUS, and ABACUS modules)
  Stefan Knecht,            ETH Zurich,                   Switzerland (Parallel CI and MCSCF, MC-srDFT)
  Rika Kobayashi,           Australian National Univ.,    Australia   (DIIS in CC, London in MCSCF)
  Henrik Koch,              NTNU,                         Norway      (CC module, Cholesky decomposition)
  Jacob Kongsted,           Univ. of Southern Denmark,    Denmark     (Polarizable embedding, polarizable density embedding, QM/MM)
  Andrea Ligabue,           University of Modena,         Italy       (CTOCD, AOSOPPA)
  Nanna H. List             Univ. of Southern Denmark,    Denmark     (Polarizable embedding)
  Ola B. Lutnaes,           University of Oslo,           Norway      (DFT Hessian)
  Juan I. Melo,             University of Buenos Aires,   Argentina   (LRESC, Relativistic Effects on NMR Shieldings)
  Kurt V. Mikkelsen,        University of Copenhagen,     Denmark     (MC-SCRF and QM/MM)
  Rolf H. Myhre,            NTNU,                         Norway      (Subsystems and CC3)
  Christian Neiss,          Univ. Erlangen-Nuernberg,     Germany     (CCSD(R12))
  Christian B. Nielsen,     University of Copenhagen,     Denmark     (QM/MM)
  Patrick Norman,           KTH Stockholm,                Sweden      (Cubic response and complex frequency response in RESPONS)
  Jeppe Olsen,              Aarhus University,            Denmark     (SIRIUS CI/density modules)
  Jogvan Magnus H. Olsen,   Aarhus University,            Denmark     (Polarizable embedding and polarizable density embedding)
  Anders Osted,             Copenhagen University,        Denmark     (QM/MM)
  Martin J. Packer,         University of Sheffield,      UK          (SOPPA)
  Filip Pawlowski,          Kazimierz Wielki University,  Poland      (CC3)
  Morten N. Pedersen,       Univ. of Southern Denmark,    Denmark     (Polarizable embedding)
  Thomas B. Pedersen,       University of Oslo,           Norway      (Cholesky decomposition)
  Patricio F. Provasi,      University of Northeastern,   Argentina   (Analysis of coupling constants in localized orbitals)
  Peter Reinholdt,          Univ. of Southern Denmark,    Denmark     (Polarizable embedding and polarizable density embedding)
  Zilvinas Rinkevicius,     KTH Stockholm,                Sweden      (open-shell DFT, ESR)
  Elias Rudberg,            KTH Stockholm,                Sweden      (DFT grid and basis info)
  Torgeir A. Ruden,         University of Oslo,           Norway      (Numerical derivatives in ABACUS)
  Kenneth Ruud,             UiT The Arctic U. of Norway,  Norway      (DALTON; ABACUS magnetic properties and much more)
  Pawel Salek,              KTH Stockholm,                Sweden      (DALTON; DFT code)
  Claire C. M. Samson       University of Karlsruhe       Germany     (Boys localization, r12 integrals in ERI)
  Alfredo Sanchez de Meras, University of Valencia,       Spain       (CC module, Cholesky decomposition)
  Trond Saue,               Paul Sabatier University,     France      (direct Fock matrix construction)
  Stephan P. A. Sauer,      University of Copenhagen,     Denmark     (SOPPA(CCSD), SOPPA prop., AOSOPPA, vibrational g-factors)
  Bernd Schimmelpfennig,    Forschungszentrum Karlsruhe,  Germany     (AMFI module)
  Anna K. Schnack-Petersen, University of Copenhagen,     Denmark     (RPA(D) and HRPA(D) properties in AOSOPPA)
  Kristian Sneskov,         Aarhus University,            Denmark     (Polarizable embedding, QM/MM)
  Arnfinn H. Steindal,      UiT The Arctic U. of Norway,  Norway      (parallel QM/MM, polarizable embedding)
  Casper Steinmann,         Aalborg University,           Denmark     (QFIT, polarizable embedding)
  K. O. Sylvester-Hvid,     University of Copenhagen,     Denmark     (MC-SCRF)
  Peter R. Taylor,          VLSCI/Univ. of Melbourne,     Australia   (Symmetry handling ABACUS, integral transformation)
  Andrew M. Teale,          University of Nottingham,     England     (DFT-AC, DFT-D)
  David P. Tew,             University of Bristol,        England     (CCSD(R12))
  Julien Toulouse,          Sorbonne Univ.,               France      (MC-srDFT)
  Olav Vahtras,             KTH Stockholm,                Sweden      (Triplet response, spin-orbit, ESR, TDDFT, open-shell DFT)
  Lucas Visscher,           Vrije Universiteit Amsterdam, Netherlands (Frozen density embedding)
  David J. Wilson,          La Trobe University,          Australia   (DFT Hessian and DFT magnetizabilities)
  Hans Agren,               KTH Stockholm,                Sweden      (SIRIUS module, RESPONS, MC-SCRF solvation)
 --------------------------------------------------------------------------------

     Date and time (Linux)  : Wed Jan 11 15:39:19 2023
     Host name              : cn018                                   

 * Work memory size             :    64000000 =  488.28 megabytes.

 * Directories for basis set searches:
   1) /gpfs/projects/rjh/adrian/fd_compare/dalton/hf/F2/dipole
   2) /gpfs/projects/rjh/adrian/dalton/build/basis


Compilation information
-----------------------

 Who compiled             | ahurtado
 Host                     | sn-mem
 System                   | Linux-3.10.0-1160.24.1.el7.x86_64
 CMake generator          | Unix Makefiles
 Processor                | x86_64
 64-bit integers          | OFF
 MPI                      | ON
 Fortran compiler         | /gpfs/software/intel/oneAPI/2021_4/mpi/2021.4.0/bi
                          | n/mpif90
 Fortran compiler version | GNU Fortran (GCC) 11.2.0
 C compiler               | /gpfs/software/intel/oneAPI/2021_4/mpi/2021.4.0/bi
                          | n/mpicc
 C compiler version       | gcc (GCC) 11.2.0
 C++ compiler             | /gpfs/software/intel/oneAPI/2021_4/mpi/2021.4.0/bi
                          | n/mpicxx
 C++ compiler version     | unknown
 BLAS                     | /gpfs/software/intel/oneAPI/2021_4/mkl/2021.4.0/li
                          | b/intel64/libmkl_gf_lp64.so;/gpfs/software/intel/o
                          | neAPI/2021_4/mkl/2021.4.0/lib/intel64/libmkl_seque
                          | ntial.so;/gpfs/software/intel/oneAPI/2021_4/mkl/20
                          | 21.4.0/lib/intel64/libmkl_core.so;/usr/lib64/libpt
                          | hread.so;/usr/lib64/libm.so
 LAPACK                   | /gpfs/software/intel/oneAPI/2021_4/mkl/2021.4.0/li
                          | b/intel64/libmkl_lapack95_lp64.a;/gpfs/software/in
                          | tel/oneAPI/2021_4/mkl/2021.4.0/lib/intel64/libmkl_
                          | gf_lp64.so
 Static linking           | OFF
 Last Git revision        | 66052b3af5ea7225e31178bf9a8b031913c72190
 Git branch               | (HEAD detached at Dalton2020.0)
 Configuration time       | 2023-01-11 13:33:37.731835

 * MPI parallel run using 20 processes.


   Content of the .dal input file
 ----------------------------------

**DALTON INPUT
.RUN RESPONSE
.DIRECT
**WAVE FUNCTIONS
.HF
**RESPONSE
*LINEAR
.DIPLEN
.FREQUENCIES
9
0.0 0.0110174375 0.022034875 0.0330523125 0.04406975 0.055087187499999996 0.066104625 0.077122062499
**END OF DALTON INPUT


   Content of the .mol file
 ----------------------------

BASIS
d-aug-cc-pCVQZ
blah
blah
Atomtype=1 Atomic
Charge=9 Atoms=2
F_a 0.000000000000 0.000000000000 0.000000000000
F_b 0.000000000000 0.000000000000 2.668160000000


       *******************************************************************
       *********** Output from DALTON general input processing ***********
       *******************************************************************

 --------------------------------------------------------------------------------
   Overall default print level:    0
   Print level for DALTON.STAT:    1

    Parallel calculation using MPI
    AO-direct calculation (in sections where implemented)
    HERMIT 1- and 2-electron integral sections will be executed
    "Old" integral transformation used (limited to max 255 basis functions)
    Wave function sections will be executed (SIRIUS module)
    Dynamic molecular response properties section will be executed (RESPONSE module)
 --------------------------------------------------------------------------------


   ****************************************************************************
   *************** Output of molecule and basis set information ***************
   ****************************************************************************


    The two title cards from your ".mol" input:
    ------------------------------------------------------------------------
 1: blah                                                                    
 2: blah                                                                    
    ------------------------------------------------------------------------

  Atomic type no.    1
  --------------------
  Nuclear charge:   9.00000
  Number of symmetry independent centers:    2
  Number of basis sets to read;    2
  Basis set file used for this atomic type with Z =   9 :
     "/gpfs/projects/rjh/adrian/dalton/build/basis/aug-cc-pCVQZ"


                      SYMADD: Requested addition of symmetry
                      --------------------------------------

 Symmetry test threshold:  5.00E-06

@   The molecule is centered at center of mass and rotated
@   so principal axes of inertia are along coordinate axes.

 Symmetry class found: D(oo,h)        

 Symmetry Independent Centres             
 ----------------------------
F_b    9 :      0.00000000     0.00000000     1.33408000  Isotope  1

 The following symmetry elements were found:   X  Y  Z  


                         SYMGRP: Point group information
                         -------------------------------

@    Full point group is: D(oo,h)        
@    Represented as:      D2h

@  * The irrep name for each symmetry:    1: Ag     2: B3u    3: B2u    4: B1g    5: B1u    6: B2g    7: B3g    8: Au 


   * The point group was generated by:

      Reflection in the yz-plane
      Reflection in the xz-plane
      Reflection in the xy-plane

   * Group multiplication table

        |  E   C2z  C2y  C2x   i   Oxy  Oxz  Oyz
   -----+----------------------------------------
     E  |  E   C2z  C2y  C2x   i   Oxy  Oxz  Oyz
    C2z | C2z   E   C2x  C2y  Oxy   i   Oyz  Oxz
    C2y | C2y  C2x   E   C2z  Oxz  Oyz   i   Oxy
    C2x | C2x  C2y  C2z   E   Oyz  Oxz  Oxy   i 
     i  |  i   Oxy  Oxz  Oyz   E   C2z  C2y  C2x
    Oxy | Oxy   i   Oyz  Oxz  C2z   E   C2x  C2y
    Oxz | Oxz  Oyz   i   Oxy  C2y  C2x   E   C2z
    Oyz | Oyz  Oxz  Oxy   i   C2x  C2y  C2z   E 

   * Character table

        |  E   C2z  C2y  C2x   i   Oxy  Oxz  Oyz
   -----+----------------------------------------
    Ag  |   1    1    1    1    1    1    1    1
    B3u |   1   -1   -1    1   -1    1    1   -1
    B2u |   1   -1    1   -1   -1    1   -1    1
    B1g |   1    1   -1   -1    1    1   -1   -1
    B1u |   1    1   -1   -1   -1   -1    1    1
    B2g |   1   -1    1   -1    1   -1    1   -1
    B3g |   1   -1   -1    1    1   -1   -1    1
    Au  |   1    1    1    1   -1   -1   -1   -1

   * Direct product table

        | Ag   B3u  B2u  B1g  B1u  B2g  B3g  Au 
   -----+----------------------------------------
    Ag  | Ag   B3u  B2u  B1g  B1u  B2g  B3g  Au 
    B3u | B3u  Ag   B1g  B2u  B2g  B1u  Au   B3g
    B2u | B2u  B1g  Ag   B3u  B3g  Au   B1u  B2g
    B1g | B1g  B2u  B3u  Ag   Au   B3g  B2g  B1u
    B1u | B1u  B2g  B3g  Au   Ag   B3u  B2u  B1g
    B2g | B2g  B1u  Au   B3g  B3u  Ag   B1g  B2u
    B3g | B3g  Au   B1u  B2g  B2u  B1g  Ag   B3u
    Au  | Au   B3g  B2g  B1u  B1g  B2u  B3u  Ag 


                                 Isotopic Masses
                                 ---------------

                           F_b _1     18.998403
                           F_b _2     18.998403

                       Total mass:    37.996806 amu
                       Natural abundance: 100.000 %

 Center-of-mass coordinates (a.u.):    0.000000    0.000000    0.000000
 Center-of-mass coordinates (Angs):    0.000000    0.000000    0.000000


  Atoms and basis sets
  --------------------

  Number of atom types :    1
  Total number of atoms:    2

  Basis set used is "d-aug-cc-pCVQZ" from the basis set library.

  label    atoms   charge   prim   cont     basis
  ----------------------------------------------------------------------
  F_          2    9.0000   147   134      [17s11p7d5f3g|10s9p7d5f3g]                         
  ----------------------------------------------------------------------
  total:      2   18.0000   294   268
  ----------------------------------------------------------------------
  Spherical harmonic basis used.

  Threshold for neglecting AO integrals:  1.00D-12


  Cartesian Coordinates (a.u.)
  ----------------------------

  Total number of coordinates:    6
  F_b / 1 :     1  x   0.0000000000    2  y   0.0000000000    3  z   1.3340800000
  F_b / 2 :     4  x   0.0000000000    5  y   0.0000000000    6  z  -1.3340800000


  Symmetry Coordinates
  --------------------

  Number of coordinates in each symmetry:     1    1    1    0    1    1    1    0

  Symmetry  Ag  ( 1)

    1   F_b   z    [  3  -    6 ]/2

  Symmetry  B3u ( 2)

    2   F_b   x    [  1  +    4 ]/2

  Symmetry  B2u ( 3)

    3   F_b   y    [  2  +    5 ]/2

  Symmetry  B1u ( 5)

    4   F_b   z    [  3  +    6 ]/2

  Symmetry  B2g ( 6)

    5   F_b   x    [  1  -    4 ]/2

  Symmetry  B3g ( 7)

    6   F_b   y    [  2  -    5 ]/2


   Interatomic separations (in Angstrom):
   --------------------------------------

            F_b _1      F_b _2
            ------      ------
 F_b _1:    0.000000
 F_b _2:    1.411929    0.000000


  Max    interatomic separation is    1.4119 Angstrom (    2.6682 Bohr)
  between atoms    2 and    1, "F_b _2" and "F_b _1".

  Min YX interatomic separation is    1.4119 Angstrom (    2.6682 Bohr)


  Bond distances (Angstrom):
  --------------------------

                  atom 1     atom 2       distance
                  ------     ------       --------
  bond distance:  F_b _2     F_b _1       1.411929




 Principal moments of inertia (u*A**2) and principal axes
 --------------------------------------------------------

   IA       0.000000          0.000000    0.000000    1.000000
   IB      18.937084          0.000000    1.000000    0.000000
   IC      18.937084          1.000000    0.000000    0.000000


 Rotational constants
 --------------------

@    The molecule is linear.

               B =        26687.27 MHz     (    0.890191 cm-1)


@  Nuclear repulsion energy :   30.357999520269 Hartree


  Symmetry Orbitals
  -----------------

  Number of orbitals in each symmetry:          52   32   32   18   52   32   32   18


  Symmetry  Ag ( 1)

    1     F_b      1s         1 +    2
    2     F_b      1s         3 +    4
    3     F_b      1s         5 +    6
    4     F_b      1s         7 +    8
    5     F_b      1s         9 +   10
    6     F_b      1s        11 +   12
    7     F_b      1s        13 +   14
    8     F_b      1s        15 +   16
    9     F_b      1s        17 +   18
   10     F_b      1s        19 +   20
   11     F_b      2pz       25 -   26
   12     F_b      2pz       31 -   32
   13     F_b      2pz       37 -   38
   14     F_b      2pz       43 -   44
   15     F_b      2pz       49 -   50
   16     F_b      2pz       55 -   56
   17     F_b      2pz       61 -   62
   18     F_b      2pz       67 -   68
   19     F_b      2pz       73 -   74
   20     F_b      3d0       79 +   80
   21     F_b      3d2+      83 +   84
   22     F_b      3d0       89 +   90
   23     F_b      3d2+      93 +   94
   24     F_b      3d0       99 +  100
   25     F_b      3d2+     103 +  104
   26     F_b      3d0      109 +  110
   27     F_b      3d2+     113 +  114
   28     F_b      3d0      119 +  120
   29     F_b      3d2+     123 +  124
   30     F_b      3d0      129 +  130
   31     F_b      3d2+     133 +  134
   32     F_b      3d0      139 +  140
   33     F_b      3d2+     143 +  144
   34     F_b      4f0      151 -  152
   35     F_b      4f2+     155 -  156
   36     F_b      4f0      165 -  166
   37     F_b      4f2+     169 -  170
   38     F_b      4f0      179 -  180
   39     F_b      4f2+     183 -  184
   40     F_b      4f0      193 -  194
   41     F_b      4f2+     197 -  198
   42     F_b      4f0      207 -  208
   43     F_b      4f2+     211 -  212
   44     F_b      5g0      223 +  224
   45     F_b      5g2+     227 +  228
   46     F_b      5g4+     231 +  232
   47     F_b      5g0      241 +  242
   48     F_b      5g2+     245 +  246
   49     F_b      5g4+     249 +  250
   50     F_b      5g0      259 +  260
   51     F_b      5g2+     263 +  264
   52     F_b      5g4+     267 +  268


  Symmetry  B3u( 2)

   53     F_b      2px       21 +   22
   54     F_b      2px       27 +   28
   55     F_b      2px       33 +   34
   56     F_b      2px       39 +   40
   57     F_b      2px       45 +   46
   58     F_b      2px       51 +   52
   59     F_b      2px       57 +   58
   60     F_b      2px       63 +   64
   61     F_b      2px       69 +   70
   62     F_b      3d1+      81 -   82
   63     F_b      3d1+      91 -   92
   64     F_b      3d1+     101 -  102
   65     F_b      3d1+     111 -  112
   66     F_b      3d1+     121 -  122
   67     F_b      3d1+     131 -  132
   68     F_b      3d1+     141 -  142
   69     F_b      4f1+     153 +  154
   70     F_b      4f3+     157 +  158
   71     F_b      4f1+     167 +  168
   72     F_b      4f3+     171 +  172
   73     F_b      4f1+     181 +  182
   74     F_b      4f3+     185 +  186
   75     F_b      4f1+     195 +  196
   76     F_b      4f3+     199 +  200
   77     F_b      4f1+     209 +  210
   78     F_b      4f3+     213 +  214
   79     F_b      5g1+     225 -  226
   80     F_b      5g3+     229 -  230
   81     F_b      5g1+     243 -  244
   82     F_b      5g3+     247 -  248
   83     F_b      5g1+     261 -  262
   84     F_b      5g3+     265 -  266


  Symmetry  B2u( 3)

   85     F_b      2py       23 +   24
   86     F_b      2py       29 +   30
   87     F_b      2py       35 +   36
   88     F_b      2py       41 +   42
   89     F_b      2py       47 +   48
   90     F_b      2py       53 +   54
   91     F_b      2py       59 +   60
   92     F_b      2py       65 +   66
   93     F_b      2py       71 +   72
   94     F_b      3d1-      77 -   78
   95     F_b      3d1-      87 -   88
   96     F_b      3d1-      97 -   98
   97     F_b      3d1-     107 -  108
   98     F_b      3d1-     117 -  118
   99     F_b      3d1-     127 -  128
  100     F_b      3d1-     137 -  138
  101     F_b      4f3-     145 +  146
  102     F_b      4f1-     149 +  150
  103     F_b      4f3-     159 +  160
  104     F_b      4f1-     163 +  164
  105     F_b      4f3-     173 +  174
  106     F_b      4f1-     177 +  178
  107     F_b      4f3-     187 +  188
  108     F_b      4f1-     191 +  192
  109     F_b      4f3-     201 +  202
  110     F_b      4f1-     205 +  206
  111     F_b      5g3-     217 -  218
  112     F_b      5g1-     221 -  222
  113     F_b      5g3-     235 -  236
  114     F_b      5g1-     239 -  240
  115     F_b      5g3-     253 -  254
  116     F_b      5g1-     257 -  258


  Symmetry  B1g( 4)

  117     F_b      3d2-      75 +   76
  118     F_b      3d2-      85 +   86
  119     F_b      3d2-      95 +   96
  120     F_b      3d2-     105 +  106
  121     F_b      3d2-     115 +  116
  122     F_b      3d2-     125 +  126
  123     F_b      3d2-     135 +  136
  124     F_b      4f2-     147 -  148
  125     F_b      4f2-     161 -  162
  126     F_b      4f2-     175 -  176
  127     F_b      4f2-     189 -  190
  128     F_b      4f2-     203 -  204
  129     F_b      5g4-     215 +  216
  130     F_b      5g2-     219 +  220
  131     F_b      5g4-     233 +  234
  132     F_b      5g2-     237 +  238
  133     F_b      5g4-     251 +  252
  134     F_b      5g2-     255 +  256


  Symmetry  B1u( 5)

  135     F_b      1s         1 -    2
  136     F_b      1s         3 -    4
  137     F_b      1s         5 -    6
  138     F_b      1s         7 -    8
  139     F_b      1s         9 -   10
  140     F_b      1s        11 -   12
  141     F_b      1s        13 -   14
  142     F_b      1s        15 -   16
  143     F_b      1s        17 -   18
  144     F_b      1s        19 -   20
  145     F_b      2pz       25 +   26
  146     F_b      2pz       31 +   32
  147     F_b      2pz       37 +   38
  148     F_b      2pz       43 +   44
  149     F_b      2pz       49 +   50
  150     F_b      2pz       55 +   56
  151     F_b      2pz       61 +   62
  152     F_b      2pz       67 +   68
  153     F_b      2pz       73 +   74
  154     F_b      3d0       79 -   80
  155     F_b      3d2+      83 -   84
  156     F_b      3d0       89 -   90
  157     F_b      3d2+      93 -   94
  158     F_b      3d0       99 -  100
  159     F_b      3d2+     103 -  104
  160     F_b      3d0      109 -  110
  161     F_b      3d2+     113 -  114
  162     F_b      3d0      119 -  120
  163     F_b      3d2+     123 -  124
  164     F_b      3d0      129 -  130
  165     F_b      3d2+     133 -  134
  166     F_b      3d0      139 -  140
  167     F_b      3d2+     143 -  144
  168     F_b      4f0      151 +  152
  169     F_b      4f2+     155 +  156
  170     F_b      4f0      165 +  166
  171     F_b      4f2+     169 +  170
  172     F_b      4f0      179 +  180
  173     F_b      4f2+     183 +  184
  174     F_b      4f0      193 +  194
  175     F_b      4f2+     197 +  198
  176     F_b      4f0      207 +  208
  177     F_b      4f2+     211 +  212
  178     F_b      5g0      223 -  224
  179     F_b      5g2+     227 -  228
  180     F_b      5g4+     231 -  232
  181     F_b      5g0      241 -  242
  182     F_b      5g2+     245 -  246
  183     F_b      5g4+     249 -  250
  184     F_b      5g0      259 -  260
  185     F_b      5g2+     263 -  264
  186     F_b      5g4+     267 -  268


  Symmetry  B2g( 6)

  187     F_b      2px       21 -   22
  188     F_b      2px       27 -   28
  189     F_b      2px       33 -   34
  190     F_b      2px       39 -   40
  191     F_b      2px       45 -   46
  192     F_b      2px       51 -   52
  193     F_b      2px       57 -   58
  194     F_b      2px       63 -   64
  195     F_b      2px       69 -   70
  196     F_b      3d1+      81 +   82
  197     F_b      3d1+      91 +   92
  198     F_b      3d1+     101 +  102
  199     F_b      3d1+     111 +  112
  200     F_b      3d1+     121 +  122
  201     F_b      3d1+     131 +  132
  202     F_b      3d1+     141 +  142
  203     F_b      4f1+     153 -  154
  204     F_b      4f3+     157 -  158
  205     F_b      4f1+     167 -  168
  206     F_b      4f3+     171 -  172
  207     F_b      4f1+     181 -  182
  208     F_b      4f3+     185 -  186
  209     F_b      4f1+     195 -  196
  210     F_b      4f3+     199 -  200
  211     F_b      4f1+     209 -  210
  212     F_b      4f3+     213 -  214
  213     F_b      5g1+     225 +  226
  214     F_b      5g3+     229 +  230
  215     F_b      5g1+     243 +  244
  216     F_b      5g3+     247 +  248
  217     F_b      5g1+     261 +  262
  218     F_b      5g3+     265 +  266


  Symmetry  B3g( 7)

  219     F_b      2py       23 -   24
  220     F_b      2py       29 -   30
  221     F_b      2py       35 -   36
  222     F_b      2py       41 -   42
  223     F_b      2py       47 -   48
  224     F_b      2py       53 -   54
  225     F_b      2py       59 -   60
  226     F_b      2py       65 -   66
  227     F_b      2py       71 -   72
  228     F_b      3d1-      77 +   78
  229     F_b      3d1-      87 +   88
  230     F_b      3d1-      97 +   98
  231     F_b      3d1-     107 +  108
  232     F_b      3d1-     117 +  118
  233     F_b      3d1-     127 +  128
  234     F_b      3d1-     137 +  138
  235     F_b      4f3-     145 -  146
  236     F_b      4f1-     149 -  150
  237     F_b      4f3-     159 -  160
  238     F_b      4f1-     163 -  164
  239     F_b      4f3-     173 -  174
  240     F_b      4f1-     177 -  178
  241     F_b      4f3-     187 -  188
  242     F_b      4f1-     191 -  192
  243     F_b      4f3-     201 -  202
  244     F_b      4f1-     205 -  206
  245     F_b      5g3-     217 +  218
  246     F_b      5g1-     221 +  222
  247     F_b      5g3-     235 +  236
  248     F_b      5g1-     239 +  240
  249     F_b      5g3-     253 +  254
  250     F_b      5g1-     257 +  258


  Symmetry  Au ( 8)

  251     F_b      3d2-      75 -   76
  252     F_b      3d2-      85 -   86
  253     F_b      3d2-      95 -   96
  254     F_b      3d2-     105 -  106
  255     F_b      3d2-     115 -  116
  256     F_b      3d2-     125 -  126
  257     F_b      3d2-     135 -  136
  258     F_b      4f2-     147 +  148
  259     F_b      4f2-     161 +  162
  260     F_b      4f2-     175 +  176
  261     F_b      4f2-     189 +  190
  262     F_b      4f2-     203 +  204
  263     F_b      5g4-     215 -  216
  264     F_b      5g2-     219 -  220
  265     F_b      5g4-     233 -  234
  266     F_b      5g2-     237 -  238
  267     F_b      5g4-     251 -  252
  268     F_b      5g2-     255 -  256

  Symmetries of electric field:  B3u(2)  B2u(3)  B1u(5)

  Symmetries of magnetic field:  B3g(7)  B2g(6)  B1g(4)


                     .---------------------------------------.
                     | Starting in Integral Section (HERMIT) |
                     `---------------------------------------'



 ***************************************************************************************
 ****************** Output from **INTEGRALS input processing (HERMIT) ******************
 ***************************************************************************************


 - Using defaults, no **INTEGRALS input found

 Default print level:        1

 Calculation of one-electron Hamiltonian integrals.

 Center of mass  (bohr):      0.000000000000      0.000000000000      0.000000000000
 Operator center (bohr):      0.000000000000      0.000000000000      0.000000000000
 Gauge origin    (bohr):      0.000000000000      0.000000000000      0.000000000000
 Dipole origin   (bohr):      0.000000000000      0.000000000000      0.000000000000


     ************************************************************************
     ************************** Output from HERINT **************************
     ************************************************************************



                      Nuclear contribution to dipole moments
                      --------------------------------------

                    All dipole components are zero by symmetry


  Time used in GABGEN     is       0.63 seconds
  Total CPU  time used in HERMIT:   0.82 seconds
  Total wall time used in HERMIT:   0.82 seconds


                        .----------------------------------.
                        | End of Integral Section (HERMIT) |
                        `----------------------------------'



                   .--------------------------------------------.
                   | Starting in Wave Function Section (SIRIUS) |
                   `--------------------------------------------'


 *** Output from Huckel module :

     Using EWMO model:          F
     Using EHT  model:          T
     Number of Huckel orbitals each symmetry:    3    1    1    0    3    1    1    0

 Huckel EHT eigenvalues for symmetry :  1
          -26.385657      -1.787625      -0.792360

 Huckel EHT eigenvalues for symmetry :  2
           -0.800215

 Huckel EHT eigenvalues for symmetry :  3
           -0.800215

 Huckel EHT eigenvalues for symmetry :  5
          -26.385463      -1.454670      -0.564625

 Huckel EHT eigenvalues for symmetry :  6
           -0.659785

 Huckel EHT eigenvalues for symmetry :  7
           -0.659785

 **********************************************************************
 *SIRIUS* a direct, restricted step, second order MCSCF program       *
 **********************************************************************

 
     Date and time (Linux)  : Wed Jan 11 15:39:20 2023
     Host name              : cn018                                   

 Title lines from ".mol" input file:
     blah                                                                    
     blah                                                                    

 Print level on unit LUPRI =   2 is   0
 Print level on unit LUW4  =   2 is   5

@    Restricted, closed shell Hartree-Fock calculation.

@    Time-dependent Hartree-Fock calculation (random phase approximation).
 Fock matrices are calculated directly and in parallel without use of integrals on disk.

 Initial molecular orbitals are obtained according to
 ".MOSTART EHT   " input option

     Wave function specification
     ============================
@    Wave function type        --- HF ---
@    Number of closed shell electrons          18
@    Number of electrons in active shells       0
@    Total charge of the molecule               0

@    Spin multiplicity and 2 M_S                1         0
@    Total number of symmetries                 8 (point group: D2h)
@    Reference state symmetry                   1 (irrep name : Ag )

     Orbital specifications
     ======================
@    Abelian symmetry species          All |    1    2    3    4    5    6    7    8
@                                          |  Ag   B3u  B2u  B1g  B1u  B2g  B3g  Au 
                                       --- |  ---  ---  ---  ---  ---  ---  ---  ---
@    Total number of orbitals          268 |   52   32   32   18   52   32   32   18
@    Number of basis functions         268 |   52   32   32   18   52   32   32   18

      ** Automatic occupation of RHF orbitals **

      -- Initial occupation of symmetries is determined from extended Huckel guess.           
      -- Initial occupation of symmetries is :
@    Occupied SCF orbitals               9 |    3    1    1    0    2    1    1    0

     Maximum number of Fock   iterations      0
     Maximum number of DIIS   iterations     60
     Maximum number of QC-SCF iterations     60
     Threshold for SCF convergence     1.00D-05

    INFORMATION: Switched to "new" integral transformation (from 1988 ;-) )
    because more than 255 basis functions.


 ***********************************************
 ***** DIIS acceleration of SCF iterations *****
 ***********************************************

 C1-DIIS algorithm; max error vectors =    8

 Automatic occupation of symmetries with  18 electrons.

 Iter     Total energy    Error norm  Delta(E)    SCF occupation
 -----------------------------------------------------------------------------
   1  Screening settings (-IFTHRS, JTDIIS, DIFDEN, times)   -8    1    T  3.45D+00  3.45D+00
@  1  -198.643576973       5.42D+00  -1.99D+02     3   1   1   0   2   1   1   0
      Virial theorem: -V/T =      2.002037
@    MULPOP   F_b _1  0.00; F_b _2  0.00; 
   1  Level shift: doubly occupied orbital energies shifted by -2.00D-01
 -----------------------------------------------------------------------------
   2  Screening settings (-IFTHRS, JTDIIS, DIFDEN, times)   -8    2    T  3.35D+00  3.35D+00
@  2  -198.762242226       4.54D-01  -1.19D-01     3   1   1   0   2   1   1   0
      Virial theorem: -V/T =      1.999728
@    MULPOP   F_b _1  0.00; F_b _2  0.00; 
   2  Level shift: doubly occupied orbital energies shifted by -5.00D-02
 -----------------------------------------------------------------------------
   3  Screening settings (-IFTHRS, JTDIIS, DIFDEN, times)   -8    3    T  3.37D+00  3.37D+00
@  3  -198.768691455       9.05D-02  -6.45D-03     3   1   1   0   2   1   1   0
      Virial theorem: -V/T =      2.001718
@    MULPOP   F_b _1 -0.00; F_b _2 -0.00; 
   3  Level shift: doubly occupied orbital energies shifted by -1.25D-02
 -----------------------------------------------------------------------------
   4  Screening settings (-IFTHRS, JTDIIS, DIFDEN, times)  -12    4    F  3.43D+00  3.43D+00
@  4  -198.769321706       3.98D-02  -6.30D-04     3   1   1   0   2   1   1   0
      Virial theorem: -V/T =      2.000774
@    MULPOP   F_b _1 -0.00; F_b _2 -0.00; 
 -----------------------------------------------------------------------------
   5  Screening settings (-IFTHRS, JTDIIS, DIFDEN, times)  -12    5    T  3.36D+00  3.37D+00
@  5  -198.769399767       7.46D-03  -7.81D-05     3   1   1   0   2   1   1   0
      Virial theorem: -V/T =      2.001065
@    MULPOP   F_b _1 -0.00; F_b _2 -0.00; 
 -----------------------------------------------------------------------------
   6  Screening settings (-IFTHRS, JTDIIS, DIFDEN, times)  -12    6    T  3.34D+00  3.34D+00
@  6  -198.769402513       9.62D-04  -2.75D-06     3   1   1   0   2   1   1   0
      Virial theorem: -V/T =      2.001007
@    MULPOP   F_b _1  0.00; F_b _2  0.00; 
 -----------------------------------------------------------------------------
   7  Screening settings (-IFTHRS, JTDIIS, DIFDEN, times)  -12    7    T  3.34D+00  3.34D+00
@  7  -198.769402590       1.29D-04  -7.77D-08     3   1   1   0   2   1   1   0
      Virial theorem: -V/T =      2.001009
@    MULPOP   F_b _1  0.00; F_b _2  0.00; 
 -----------------------------------------------------------------------------
   8  Screening settings (-IFTHRS, JTDIIS, DIFDEN, times)  -12    8    T  3.44D+00  3.44D+00
@  8  -198.769402591       1.41D-05  -8.61D-10     3   1   1   0   2   1   1   0
      Virial theorem: -V/T =      2.001009
@    MULPOP   F_b _1  0.00; F_b _2  0.00; 
 -----------------------------------------------------------------------------
   9  Screening settings (-IFTHRS, JTDIIS, DIFDEN, times)  -12    9    T  3.38D+00  3.38D+00
@  9  -198.769402591       3.04D-06  -1.94D-11     3   1   1   0   2   1   1   0

@ *** DIIS converged in   9 iterations !
@     Converged SCF energy, gradient:   -198.769402591185    3.04D-06
    - total time used in SIRFCK :              0.00 seconds


 *** SCF orbital energy analysis ***

 Only the 20 lowest virtual orbital energies printed in each symmetry.

 Number of electrons :   18
 Orbital occupations :    3    1    1    0    2    1    1    0

 Sym       Hartree-Fock orbital energies

1 Ag    -26.42905385    -1.76504765    -0.75197849     0.03654892     0.06883002
          0.19205470     0.22390420     0.23918654     0.44536116     0.69294379
          0.72728225     0.87417816     0.88260124     1.27119935     1.69569454
          1.76255734     1.94714855     1.99355487     2.22855281     2.32187233
          2.48634571     2.93184999     3.79685334

2 B3u    -0.81143757     0.04624615     0.21212579     0.29480502     0.71852209
          0.74189051     0.83208238     1.14752849     1.91234683     1.97828700
          2.15396159     2.19767126     2.70883571     4.10078898     5.10287641
          5.15814914     5.72311203     5.73747587     6.59862701    11.98020108
         13.93556376

3 B2u    -0.81143757     0.04624615     0.21212579     0.29480502     0.71852209
          0.74189051     0.83208238     1.14752849     1.91234683     1.97828700
          2.15396159     2.19767126     2.70883571     4.10078898     5.10287641
          5.15814914     5.72311203     5.73747587     6.59862701    11.98020108
         13.93556376

4 B1g     0.22390420     0.72728225     0.87417816     1.76255734     1.94714855
          2.22855281     2.48634571     5.07047116     5.28690655     5.75560267
          5.90787802    13.97018712    14.20632829    15.84834650    16.65918223
         60.25769931    97.99174183   251.15850069

5 B1u   -26.42880769    -1.49788110     0.02887204     0.06866187     0.12392827
          0.26137966     0.29092732     0.29120851     0.55424826     0.79971500
          0.80111750     1.06042043     1.12128162     1.22421149     2.03305529
          2.06150844     2.17490999     2.18183709     2.20251290     2.73262056
          3.20400393     3.36541429

6 B2g    -0.66697381     0.06414542     0.23829145     0.36751594     0.68318578
          0.88222821     0.97675049     1.54269755     2.16435091     2.21458188
          2.31519281     2.57962840     3.42468100     4.09783745     5.51902649
          5.78706828     5.91842871     6.76651789     7.76431049    12.48268121
         14.19045254

7 B3g    -0.66697381     0.06414542     0.23829145     0.36751594     0.68318578
          0.88222821     0.97675049     1.54269755     2.16435091     2.21458188
          2.31519281     2.57962840     3.42468100     4.09783745     5.51902649
          5.78706828     5.91842871     6.76651789     7.76431049    12.48268121
         14.19045254

8 Au      0.29092732     0.80111750     1.12128162     2.03305529     2.18183709
          2.20251290     3.36541429     5.48004745     5.64103357     6.28111534
          6.70226641    14.06795937    14.18860343    16.28022181    16.87624628
         60.37410488    98.07345412   251.22232484

    E(LUMO) :     0.02887204 au (symmetry 5)
  - E(HOMO) :    -0.66697381 au (symmetry 6)
  ------------------------------------------
    gap     :     0.69584585 au

 --- Writing SIRIFC interface file

 CPU and wall time for SCF :      30.523      30.537


                       .-----------------------------------.
                       | --- Final results from SIRIUS --- |
                       `-----------------------------------'


@    Spin multiplicity:           1
@    Spatial symmetry:            1 ( irrep  Ag  in D2h )
@    Total charge of molecule:    0

@    Final HF energy:            -198.769402591185                 
@    Nuclear repulsion:            30.357999520269
@    Electronic energy:          -229.127402111454

@    Final gradient norm:           0.000003038130

 
     Date and time (Linux)  : Wed Jan 11 15:39:51 2023
     Host name              : cn018                                   

File label for MO orbitals:  11Jan23   FOCKDIIS

 (Only coefficients > 0.0100 are printed.)

 Molecular orbitals for symmetry species 1  (Ag )
 ------------------------------------------------

    Orbital         1        2        3        4        5        6        7
   1 F_b :1s     0.7080  -0.0011   0.0021  -0.0038   0.0070  -0.0090  -0.0000
   2 F_b :1s     0.0040   0.6680   0.1620   0.0303   0.0631  -0.1528   0.0000
   4 F_b :1s    -0.0037  -0.0086   0.0106   0.0358  -0.0477   0.0250  -0.0000
   5 F_b :1s    -0.0009  -0.0246   0.0782   0.2888   0.0394   1.0606  -0.0000
   9 F_b :1s     0.0002   0.0038   0.0080   0.9435   0.9383   3.4790   0.0000
  10 F_b :1s    -0.0000  -0.0010  -0.0041  -1.2261  -0.3430  -1.9037   0.0000
  11 F_b :2pz   -0.0025  -0.0832   0.6273   0.0243   0.0058  -0.0846   0.0000
  12 F_b :2pz    0.0009  -0.0027   0.0021   0.0072  -0.0015   0.0289  -0.0000
  13 F_b :2pz    0.0016  -0.0043   0.0088  -0.0297   0.0188  -0.1145  -0.0000
  14 F_b :2pz   -0.0002   0.0061   0.0123   0.0348  -0.0297   0.0898  -0.0000
  18 F_b :2pz    0.0000   0.0057   0.0328   1.2296   0.7528   5.3275  -0.0000
  19 F_b :2pz    0.0001   0.0005  -0.0008  -0.8872   2.2339   0.3910  -0.0000
  28 F_b :3d0    0.0001   0.0097  -0.0218   0.0073  -0.0033   0.0160  -0.0000
  29 F_b :3d2+  -0.0000   0.0000   0.0000   0.0000   0.0000  -0.0000  -0.0514
  30 F_b :3d0    0.0006   0.0045  -0.0277  -0.1203   0.0528  -0.4346   0.0000
  31 F_b :3d2+   0.0000  -0.0000  -0.0000  -0.0000  -0.0000   0.0000   0.1674
  32 F_b :3d0   -0.0001  -0.0031  -0.0107  -0.5073  -0.5085  -2.4367   0.0000
  33 F_b :3d2+  -0.0000   0.0000   0.0000   0.0000   0.0000  -0.0000  -0.6147
  40 F_b :4f0   -0.0003  -0.0041   0.0061   0.0031  -0.0198   0.0109  -0.0000
  42 F_b :4f0   -0.0001  -0.0008   0.0081   0.0752   0.0256   0.3039  -0.0000
  50 F_b :5g0    0.0001   0.0003  -0.0003  -0.0080   0.0015  -0.0327   0.0000
  51 F_b :5g2+   0.0000   0.0000   0.0000   0.0000   0.0000  -0.0000  -0.0130

    Orbital         8        9       10       11       12       13
   1 F_b :1s    -0.0316   0.0219   0.0918   0.0000  -0.0000   0.0221
   2 F_b :1s    -0.1208   0.2716   0.4349   0.0000   0.0000   0.1409
   3 F_b :1s    -0.0055  -0.0084   0.0248  -0.0000   0.0000   0.0194
   4 F_b :1s     0.2420  -0.0726  -0.7045  -0.0000  -0.0000  -0.2407
   5 F_b :1s     0.6024   3.3366  -3.4082   0.0000   0.0000   0.9711
   6 F_b :1s    -0.0125   0.0077   0.0355   0.0000  -0.0000   0.0079
   9 F_b :1s    -0.5905   1.6186   0.7226   0.0000  -0.0000   0.9811
  10 F_b :1s     0.0046  -1.4577   0.4297   0.0000  -0.0000  -0.6608
  11 F_b :2pz   -0.0869  -0.0245  -0.1219  -0.0000   0.0000   0.0515
  12 F_b :2pz    0.0203   0.0787  -0.1024   0.0000  -0.0000   0.0089
  13 F_b :2pz   -0.1327  -0.3609   0.5647   0.0000  -0.0000   0.1390
  14 F_b :2pz    0.1252   0.5367  -0.7642   0.0000  -0.0000  -0.0623
  18 F_b :2pz    0.8482   7.0643  -3.3738  -0.0000   0.0000   2.5564
  19 F_b :2pz   -1.3322   0.3475   0.6243   0.0000   0.0000   0.2681
  26 F_b :3d0    0.0065   0.0238  -0.0005   0.0000  -0.0000  -0.0094
  27 F_b :3d2+  -0.0000  -0.0000  -0.0000   0.0510   0.0104  -0.0000
  28 F_b :3d0    0.0479   0.0280  -0.1122   0.0000   0.0000  -0.0236
  29 F_b :3d2+   0.0000   0.0000   0.0000  -0.1061  -0.0442   0.0000
  30 F_b :3d0   -0.4772  -1.0141   2.2940   0.0000  -0.0000   0.3389
  31 F_b :3d2+  -0.0000  -0.0000  -0.0000   0.8329   0.4531  -0.0000
  32 F_b :3d0    0.5561  -3.4122   0.8132   0.0000  -0.0000  -1.3955
  33 F_b :3d2+   0.0000   0.0000  -0.0000  -0.4016  -0.1124   0.0000
  38 F_b :4f0   -0.0103  -0.0210   0.0306  -0.0000  -0.0000   0.0625
  39 F_b :4f2+   0.0000  -0.0000   0.0000  -0.0091   0.0595  -0.0000
  40 F_b :4f0    0.0669   0.1424  -0.2740  -0.0000  -0.0000  -0.2897
  41 F_b :4f2+  -0.0000   0.0000  -0.0000   0.0146  -0.2217   0.0000
  42 F_b :4f0    0.1136   0.4642  -0.6741  -0.0000   0.0000   0.9482
  43 F_b :4f2+   0.0000  -0.0000   0.0000  -0.0267   0.8947  -0.0000
  47 F_b :5g0   -0.0104  -0.0121   0.0420   0.0000  -0.0000   0.0181
  48 F_b :5g2+   0.0000  -0.0000   0.0000   0.0153  -0.0021  -0.0000
  50 F_b :5g0   -0.0231  -0.0890   0.1216   0.0000  -0.0000   0.0104
  51 F_b :5g2+  -0.0000   0.0000  -0.0000  -0.0406  -0.0342   0.0000

 Molecular orbitals for symmetry species 2  (B3u)
 ------------------------------------------------

    Orbital         1        2        3        4        5        6        7
   1 F_b :2px    0.6823   0.0400   0.1335  -0.0586   0.0000  -0.2275   0.3560
   2 F_b :2px   -0.0008  -0.0022   0.0115   0.0021  -0.0000  -0.0041  -0.0579
   3 F_b :2px   -0.0016   0.0005  -0.0048  -0.0187  -0.0000   0.0428   0.0859
   4 F_b :2px   -0.0234  -0.0667   0.3436  -0.4356   0.0000   1.4146  -1.3937
   8 F_b :2px    0.0034   0.1992  -1.0139  -0.0740  -0.0000  -0.4172   0.7429
   9 F_b :2px    0.0008  -0.6110   0.4438   0.0431   0.0000   0.0720  -0.2083
  13 F_b :3d1+  -0.0056  -0.0022   0.0062  -0.0001  -0.0000   0.0016  -0.0505
  14 F_b :3d1+  -0.0090   0.0115  -0.0578   0.0084   0.0000  -0.1504   0.2171
  15 F_b :3d1+  -0.0039  -0.0312   0.1409   0.0332   0.0000   0.0351  -0.9225
  16 F_b :3d1+  -0.0011   0.0191  -0.2635  -1.3946  -0.0000   1.0412   0.2480
  21 F_b :4f1+   0.0039  -0.0008   0.0067   0.0067   0.0000  -0.0203  -0.0251
  22 F_b :4f3+  -0.0000   0.0000   0.0000  -0.0000   0.0520   0.0000   0.0000
  23 F_b :4f1+   0.0031   0.0037  -0.0182  -0.0285  -0.0000   0.0807   0.0950
  24 F_b :4f3+  -0.0000  -0.0000  -0.0000   0.0000  -0.1934   0.0000  -0.0000
  25 F_b :4f1+   0.0043   0.0293  -0.0986   0.3668  -0.0000  -1.3505   0.2911
  26 F_b :4f3+   0.0000   0.0000   0.0000  -0.0000   0.6719  -0.0000   0.0000
  29 F_b :5g1+  -0.0007   0.0013  -0.0049   0.0137  -0.0000  -0.0351   0.0128
  30 F_b :5g3+   0.0000   0.0000   0.0000  -0.0000  -0.0106  -0.0000   0.0000
  31 F_b :5g1+  -0.0021  -0.0131   0.0494  -0.0818   0.0000   0.2717  -0.2003
  32 F_b :5g3+  -0.0000  -0.0000  -0.0000   0.0000   0.0235   0.0000  -0.0000

    Orbital         8        9       10       11
   1 F_b :2px    0.3395  -0.0000   0.1922   0.3071
   2 F_b :2px   -0.0706   0.0000  -0.0221  -0.0930
   3 F_b :2px    0.1966   0.0000   0.1783   0.5453
   4 F_b :2px    0.7600   0.0000  -0.0855   1.1290
   8 F_b :2px   -0.2313  -0.0000   0.0421  -0.5021
   9 F_b :2px    0.0102   0.0000  -0.0156   0.0894
  12 F_b :3d1+  -0.0026  -0.0000   0.0283  -0.0269
  13 F_b :3d1+   0.0502  -0.0000  -0.0249   0.0620
  14 F_b :3d1+  -0.1108   0.0000   0.5892  -1.0096
  15 F_b :3d1+   0.8611   0.0000  -0.3536   1.7269
  16 F_b :3d1+   0.5748  -0.0000   0.3001   0.4245
  21 F_b :4f1+  -0.0465   0.0000  -0.0149  -0.0060
  22 F_b :4f3+  -0.0000  -0.0310  -0.0000  -0.0000
  23 F_b :4f1+   0.1729  -0.0000   0.0317   0.2092
  24 F_b :4f3+  -0.0000   0.1547  -0.0000  -0.0000
  25 F_b :4f1+  -1.6059  -0.0000  -0.1608  -1.7651
  26 F_b :4f3+   0.0000  -0.1725   0.0000   0.0000
  27 F_b :5g1+  -0.0011  -0.0000   0.0234   0.0143
  28 F_b :5g3+  -0.0000  -0.0294  -0.0000  -0.0000
  29 F_b :5g1+   0.0058  -0.0000  -0.0958  -0.0772
  30 F_b :5g3+   0.0000   0.1442   0.0000   0.0000
  31 F_b :5g1+   0.0971   0.0000   0.5310   1.0655
  32 F_b :5g3+  -0.0000  -0.6482  -0.0000  -0.0000

 Molecular orbitals for symmetry species 3  (B2u)
 ------------------------------------------------

    Orbital         1        2        3        4        5        6        7
   1 F_b :2py    0.6823   0.0400   0.1335  -0.0586  -0.0000  -0.2275   0.3560
   2 F_b :2py   -0.0008  -0.0022   0.0115   0.0021   0.0000  -0.0041  -0.0579
   3 F_b :2py   -0.0016   0.0005  -0.0048  -0.0187   0.0000   0.0428   0.0859
   4 F_b :2py   -0.0234  -0.0667   0.3436  -0.4356   0.0000   1.4146  -1.3937
   8 F_b :2py    0.0034   0.1992  -1.0139  -0.0740  -0.0000  -0.4172   0.7429
   9 F_b :2py    0.0008  -0.6110   0.4438   0.0431   0.0000   0.0720  -0.2083
  13 F_b :3d1-  -0.0056  -0.0022   0.0062  -0.0001  -0.0000   0.0016  -0.0505
  14 F_b :3d1-  -0.0090   0.0115  -0.0578   0.0084   0.0000  -0.1504   0.2171
  15 F_b :3d1-  -0.0039  -0.0312   0.1409   0.0332  -0.0000   0.0351  -0.9225
  16 F_b :3d1-  -0.0011   0.0191  -0.2635  -1.3946  -0.0000   1.0412   0.2480
  21 F_b :4f3-  -0.0000  -0.0000  -0.0000   0.0000   0.0520   0.0000  -0.0000
  22 F_b :4f1-   0.0039  -0.0008   0.0067   0.0067   0.0000  -0.0203  -0.0251
  23 F_b :4f3-   0.0000   0.0000   0.0000  -0.0000  -0.1934  -0.0000   0.0000
  24 F_b :4f1-   0.0031   0.0037  -0.0182  -0.0285  -0.0000   0.0807   0.0950
  25 F_b :4f3-  -0.0000  -0.0000  -0.0000   0.0000   0.6719  -0.0000   0.0000
  26 F_b :4f1-   0.0043   0.0293  -0.0986   0.3668   0.0000  -1.3505   0.2911
  29 F_b :5g3-  -0.0000  -0.0000  -0.0000   0.0000  -0.0106   0.0000  -0.0000
  30 F_b :5g1-  -0.0007   0.0013  -0.0049   0.0137  -0.0000  -0.0351   0.0128
  31 F_b :5g3-   0.0000   0.0000   0.0000  -0.0000   0.0235  -0.0000   0.0000
  32 F_b :5g1-  -0.0021  -0.0131   0.0494  -0.0818  -0.0000   0.2717  -0.2003

    Orbital         8        9       10       11
   1 F_b :2py    0.3395   0.0000   0.1922   0.3071
   2 F_b :2py   -0.0706  -0.0000  -0.0221  -0.0930
   3 F_b :2py    0.1966  -0.0000   0.1783   0.5453
   4 F_b :2py    0.7600  -0.0000  -0.0855   1.1290
   8 F_b :2py   -0.2313   0.0000   0.0421  -0.5021
   9 F_b :2py    0.0102   0.0000  -0.0156   0.0894
  12 F_b :3d1-  -0.0026  -0.0000   0.0283  -0.0269
  13 F_b :3d1-   0.0502  -0.0000  -0.0249   0.0620
  14 F_b :3d1-  -0.1108   0.0000   0.5892  -1.0096
  15 F_b :3d1-   0.8611  -0.0000  -0.3536   1.7269
  16 F_b :3d1-   0.5748  -0.0000   0.3001   0.4245
  21 F_b :4f3-  -0.0000  -0.0310  -0.0000  -0.0000
  22 F_b :4f1-  -0.0465   0.0000  -0.0149  -0.0060
  23 F_b :4f3-   0.0000   0.1547   0.0000   0.0000
  24 F_b :4f1-   0.1729   0.0000   0.0317   0.2092
  25 F_b :4f3-   0.0000  -0.1725  -0.0000   0.0000
  26 F_b :4f1-  -1.6059   0.0000  -0.1608  -1.7651
  27 F_b :5g3-   0.0000  -0.0294   0.0000   0.0000
  28 F_b :5g1-  -0.0011  -0.0000   0.0234   0.0143
  29 F_b :5g3-  -0.0000   0.1442  -0.0000  -0.0000
  30 F_b :5g1-   0.0058  -0.0000  -0.0958  -0.0772
  31 F_b :5g3-   0.0000  -0.6482   0.0000   0.0000
  32 F_b :5g1-   0.0971  -0.0000   0.5310   1.0655

 Molecular orbitals for symmetry species 4  (B1g)
 ------------------------------------------------

    Orbital         1        2        3        4        5        6        7
   3 F_b :3d2-  -0.0030  -0.0046  -0.0019   0.0000   0.0323   0.0064  -0.0278
   4 F_b :3d2-   0.0082   0.0510   0.0104   0.0000  -0.0447  -0.0032   0.0586
   5 F_b :3d2-  -0.0514  -0.1061  -0.0442   0.0000   0.7068   0.1172  -0.8252
   6 F_b :3d2-   0.1674   0.8329   0.4531   0.0000  -0.6175  -0.3145   0.2143
   7 F_b :3d2-  -0.6147  -0.4016  -0.1124   0.0000   0.2139   0.0762  -0.0395
   9 F_b :4f2-   0.0003   0.0009  -0.0081   0.0000  -0.0087   0.0253  -0.0060
  10 F_b :4f2-  -0.0016  -0.0091   0.0595   0.0000   0.0391  -0.1450   0.0286
  11 F_b :4f2-   0.0039   0.0146  -0.2217   0.0000  -0.2140   0.9386  -0.0535
  12 F_b :4f2-   0.0033  -0.0267   0.8947   0.0000   0.0349  -0.6821  -0.2097
  13 F_b :5g4-   0.0000   0.0000   0.0000   0.0300   0.0000   0.0000   0.0000
  14 F_b :5g2-  -0.0010  -0.0029   0.0002   0.0000   0.0153   0.0124   0.0263
  15 F_b :5g4-   0.0000   0.0000   0.0000  -0.1462   0.0000   0.0000   0.0000
  16 F_b :5g2-   0.0043   0.0153  -0.0021   0.0000  -0.0684  -0.0637  -0.1467
  17 F_b :5g4-   0.0000   0.0000   0.0000   0.6883   0.0000   0.0000   0.0000
  18 F_b :5g2-  -0.0130  -0.0406  -0.0342   0.0000   0.3241   0.5454   0.9357

    Orbital         8        9       10
   2 F_b :3d2-   0.0034   0.0000  -0.0185
   3 F_b :3d2-  -0.0124   0.0000   0.0450
   4 F_b :3d2-   0.1508   0.0000  -0.9445
   5 F_b :3d2-  -0.0602   0.0000   0.8325
   6 F_b :3d2-   0.1202   0.0000  -0.3648
   7 F_b :3d2-  -0.0554   0.0000   0.0990
   9 F_b :4f2-   0.0342   0.0000   0.0246
  10 F_b :4f2-  -0.4880   0.0000  -0.3562
  11 F_b :4f2-   0.3305   0.0000   0.2696
  12 F_b :4f2-  -0.0487   0.0000  -0.0961
  13 F_b :5g4-   0.0000  -0.1161   0.0000
  14 F_b :5g2-  -0.0749   0.0000   0.0066
  15 F_b :5g4-   0.0000   0.8986   0.0000
  16 F_b :5g2-   0.6607   0.0000  -0.0360
  17 F_b :5g4-   0.0000  -0.3431   0.0000
  18 F_b :5g2-  -0.4095   0.0000  -0.0727

 Molecular orbitals for symmetry species 5  (B1u)
 ------------------------------------------------

    Orbital         1        2        3        4        5        6        7
   1 F_b :1s     0.7082   0.0016   0.0028  -0.0013  -0.0079   0.0191  -0.0000
   2 F_b :1s     0.0050   0.7300   0.0791  -0.1948  -0.1377   0.0725  -0.0000
   3 F_b :1s    -0.0008   0.0019   0.0023   0.0011  -0.0051   0.0123  -0.0000
   4 F_b :1s    -0.0046  -0.0035  -0.0400  -0.0808   0.1369  -0.3803   0.0000
   5 F_b :1s     0.0022   0.0299   0.3377   0.2764  -0.9494   1.9983   0.0000
   9 F_b :1s     0.0027  -0.0018   3.0907   3.8400  -8.8092  18.2726  -0.0000
  10 F_b :1s     0.0008  -0.0089   8.7148  11.1924 -20.0531  21.5957  -0.0000
  11 F_b :2pz   -0.0023   0.0933  -0.1478   0.4976   0.4267   0.2726   0.0000
  12 F_b :2pz    0.0008  -0.0005   0.0041   0.0081  -0.0130   0.0371  -0.0000
  13 F_b :2pz    0.0014  -0.0043  -0.0123   0.0091   0.0369  -0.0432  -0.0000
  14 F_b :2pz   -0.0019  -0.0262  -0.4807  -0.4864   1.4300  -2.9416  -0.0000
  18 F_b :2pz   -0.0008   0.0044  -1.7065  -2.0178   4.9828  -9.4407   0.0000
  19 F_b :2pz   -0.0001   0.0010  -1.8782  -1.8449   2.6717  -2.3131   0.0000
  26 F_b :3d0   -0.0003  -0.0030  -0.0047   0.0003   0.0127  -0.0151  -0.0000
  28 F_b :3d0   -0.0001  -0.0044   0.0243   0.0535  -0.0711   0.1849   0.0000
  29 F_b :3d2+  -0.0000   0.0000   0.0000  -0.0000  -0.0000  -0.0000   0.0338
  30 F_b :3d0    0.0008   0.0036   0.1400   0.2087  -0.4216   1.0568  -0.0000
  31 F_b :3d2+  -0.0000   0.0000   0.0000  -0.0000  -0.0000  -0.0000   0.0598
  32 F_b :3d0    0.0001  -0.0011   0.2306   0.3349  -0.5718   0.7520  -0.0000
  33 F_b :3d2+  -0.0000   0.0000   0.0000  -0.0000  -0.0000  -0.0000   1.8136
  40 F_b :4f0    0.0001   0.0003  -0.0127  -0.0186   0.0408  -0.1094  -0.0000
  41 F_b :4f2+   0.0000  -0.0000  -0.0000   0.0000   0.0000   0.0000   0.0352
  42 F_b :4f0   -0.0001  -0.0009  -0.0358  -0.0455   0.0810  -0.1047   0.0000
  43 F_b :4f2+   0.0000  -0.0000  -0.0000   0.0000   0.0000   0.0000  -0.3230
  47 F_b :5g0   -0.0000   0.0002   0.0016   0.0029  -0.0056   0.0164   0.0000
  48 F_b :5g2+  -0.0000  -0.0000  -0.0000   0.0000   0.0000   0.0000  -0.0102
  51 F_b :5g2+  -0.0000   0.0000   0.0000  -0.0000  -0.0000  -0.0000   0.0391

    Orbital         8        9       10       11       12
   1 F_b :1s    -0.0136   0.0223  -0.0402  -0.0000   0.1126
   2 F_b :1s    -0.0150  -0.0046  -0.2855  -0.0000   0.6483
   3 F_b :1s     0.0015   0.0196  -0.0160   0.0000   0.0307
   4 F_b :1s     0.1162  -0.6765   0.5816   0.0000  -1.1619
   5 F_b :1s     0.0230   3.8202  -1.4176  -0.0000  10.5512
   6 F_b :1s    -0.0057   0.0094  -0.0147  -0.0000   0.0423
   9 F_b :1s     7.0869  35.4705  -5.4028   0.0000  18.4250
  10 F_b :1s     8.7824  20.4231  -0.8519   0.0000   7.5535
  11 F_b :2pz    0.0321  -0.3100   0.1900   0.0000  -0.0426
  12 F_b :2pz   -0.0090   0.0592  -0.0625  -0.0000   0.0509
  13 F_b :2pz    0.0184  -0.0965   0.1031  -0.0000  -0.1608
  14 F_b :2pz   -0.1642  -6.4912   2.7164  -0.0000  -8.8208
  18 F_b :2pz   -3.4577 -13.9635   1.5455   0.0000  -6.3819
  19 F_b :2pz   -1.0971  -2.0073  -0.0143  -0.0000  -0.7246
  26 F_b :3d0   -0.0060  -0.0411  -0.0005   0.0000  -0.0051
  27 F_b :3d2+  -0.0000   0.0000   0.0000  -0.0226  -0.0000
  28 F_b :3d0    0.0296   0.3657  -0.2073  -0.0000   0.1659
  29 F_b :3d2+   0.0000  -0.0000  -0.0000   0.0273   0.0000
  30 F_b :3d0   -0.0601   2.0615  -1.0339   0.0000   4.5456
  31 F_b :3d2+   0.0000   0.0000  -0.0000   0.8940   0.0000
  32 F_b :3d0    1.7587   2.0920   0.8051   0.0000   1.3573
  33 F_b :3d2+   0.0000   0.0000  -0.0000   1.3654   0.0000
  38 F_b :4f0   -0.0078  -0.0259  -0.0062  -0.0000  -0.0000
  39 F_b :4f2+   0.0000   0.0000  -0.0000  -0.0211   0.0000
  40 F_b :4f0    0.0309  -0.1911   0.2182  -0.0000  -0.1721
  41 F_b :4f2+  -0.0000  -0.0000   0.0000   0.0460  -0.0000
  42 F_b :4f0   -0.2188  -0.3611  -1.1283   0.0000  -2.6254
  43 F_b :4f2+  -0.0000  -0.0000   0.0000  -1.7970  -0.0000
  47 F_b :5g0   -0.0062   0.0274  -0.0509   0.0000  -0.0371
  48 F_b :5g2+  -0.0000  -0.0000   0.0000  -0.0412  -0.0000
  50 F_b :5g0    0.0312   0.0265   0.1735   0.0000   0.4045
  51 F_b :5g2+   0.0000   0.0000  -0.0000   0.2464   0.0000

 Molecular orbitals for symmetry species 6  (B2g)
 ------------------------------------------------

    Orbital         1        2        3        4        5        6        7
   1 F_b :2px    0.7435  -0.0169  -0.1130   0.0110   0.2242  -0.0000   0.1389
   2 F_b :2px    0.0004  -0.0025   0.0113   0.0237   0.0315   0.0000  -0.0697
   3 F_b :2px   -0.0034   0.0121  -0.0556  -0.0428  -0.1611   0.0000   0.1452
   4 F_b :2px    0.0721  -0.4607   2.0007   0.3828   6.9396   0.0000  -1.1916
   8 F_b :2px    0.0582  -1.0931   6.2494  18.5893   4.6910   0.0000 -10.1969
   9 F_b :2px   -0.0050   3.0830  -1.8318  -0.2612  -0.9814  -0.0000  -0.0096
  13 F_b :3d1+   0.0006  -0.0031   0.0142   0.0009   0.0326   0.0000  -0.0117
  14 F_b :3d1+   0.0001   0.0232  -0.0878   0.0023  -0.2902   0.0000  -0.0509
  15 F_b :3d1+  -0.0433   0.3637  -1.6271   0.0183  -5.6308  -0.0000  -0.2987
  16 F_b :3d1+  -0.0146   0.2392  -1.4302  -7.4221  -1.0331  -0.0000   4.3200
  21 F_b :4f1+   0.0009   0.0027  -0.0112   0.0107  -0.0359   0.0000  -0.0372
  22 F_b :4f3+   0.0000  -0.0000  -0.0000   0.0000   0.0000   0.0553   0.0000
  23 F_b :4f1+   0.0040  -0.0413   0.1718  -0.0852   0.5685   0.0000   0.2915
  24 F_b :4f3+  -0.0000   0.0000   0.0000  -0.0000  -0.0000  -0.2253  -0.0000
  25 F_b :4f1+   0.0140  -0.1170   0.5482   0.2838   1.8284   0.0000  -1.1219
  26 F_b :4f3+   0.0000  -0.0000  -0.0000   0.0000   0.0000   1.2329   0.0000
  29 F_b :5g1+  -0.0004   0.0021  -0.0077   0.0097  -0.0265  -0.0000  -0.0293
  30 F_b :5g3+  -0.0000   0.0000   0.0000  -0.0000  -0.0000   0.0201  -0.0000
  31 F_b :5g1+  -0.0015   0.0204  -0.0882  -0.0089  -0.2869  -0.0000   0.0058
  32 F_b :5g3+   0.0000  -0.0000  -0.0000   0.0000   0.0000  -0.0999   0.0000

    Orbital         8        9       10       11
   1 F_b :2px   -0.5574   0.1873  -0.0000   0.0907
   2 F_b :2px    0.1196  -0.1317   0.0000  -0.0363
   3 F_b :2px   -0.5907   0.2471   0.0000   0.2753
   4 F_b :2px   13.2275   3.7738   0.0000   2.1300
   5 F_b :2px    0.0097  -0.0101   0.0000  -0.0027
   8 F_b :2px    4.8357  -3.3254   0.0000   3.4066
   9 F_b :2px   -0.5999  -0.1872   0.0000  -0.0802
  12 F_b :3d1+  -0.0125   0.0058   0.0000  -0.0072
  13 F_b :3d1+   0.0905   0.0807   0.0000   0.0195
  14 F_b :3d1+  -0.5552  -0.1933  -0.0000  -0.2917
  15 F_b :3d1+  -8.5662  -3.1084  -0.0000  -1.0210
  16 F_b :3d1+  -1.3875   1.6207  -0.0000  -1.3775
  19 F_b :4f1+   0.0041   0.0171  -0.0000  -0.0013
  20 F_b :4f3+   0.0000  -0.0000  -0.0142  -0.0000
  21 F_b :4f1+  -0.0584  -0.1134  -0.0000   0.0076
  22 F_b :4f3+  -0.0000   0.0000   0.0780   0.0000
  23 F_b :4f1+   1.0507   1.4857   0.0000  -0.2859
  24 F_b :4f3+   0.0000  -0.0000  -0.4592  -0.0000
  25 F_b :4f1+   2.4274   0.1448   0.0000   0.9830
  26 F_b :4f3+  -0.0000   0.0000   0.9512   0.0000
  27 F_b :5g1+   0.0080   0.0067   0.0000  -0.0365
  28 F_b :5g3+  -0.0000   0.0000  -0.0279   0.0000
  29 F_b :5g1+  -0.0695  -0.0627   0.0000   0.2330
  30 F_b :5g3+   0.0000  -0.0000   0.1475  -0.0000
  31 F_b :5g1+  -0.4883  -0.4733   0.0000  -1.1645
  32 F_b :5g3+  -0.0000   0.0000  -1.1011   0.0000

 Molecular orbitals for symmetry species 7  (B3g)
 ------------------------------------------------

    Orbital         1        2        3        4        5        6        7
   1 F_b :2py    0.7435  -0.0169  -0.1130   0.0110   0.2242   0.0000   0.1389
   2 F_b :2py    0.0004  -0.0025   0.0113   0.0237   0.0315  -0.0000  -0.0697
   3 F_b :2py   -0.0034   0.0121  -0.0556  -0.0428  -0.1611  -0.0000   0.1452
   4 F_b :2py    0.0721  -0.4607   2.0007   0.3828   6.9396  -0.0000  -1.1916
   8 F_b :2py    0.0582  -1.0931   6.2494  18.5893   4.6910   0.0000 -10.1969
   9 F_b :2py   -0.0050   3.0830  -1.8318  -0.2612  -0.9814   0.0000  -0.0096
  13 F_b :3d1-   0.0006  -0.0031   0.0142   0.0009   0.0326  -0.0000  -0.0117
  14 F_b :3d1-   0.0001   0.0232  -0.0878   0.0023  -0.2902   0.0000  -0.0509
  15 F_b :3d1-  -0.0433   0.3637  -1.6271   0.0183  -5.6308  -0.0000  -0.2987
  16 F_b :3d1-  -0.0146   0.2392  -1.4302  -7.4221  -1.0331  -0.0000   4.3200
  21 F_b :4f3-  -0.0000   0.0000   0.0000  -0.0000  -0.0000   0.0553  -0.0000
  22 F_b :4f1-   0.0009   0.0027  -0.0112   0.0107  -0.0359   0.0000  -0.0372
  23 F_b :4f3-   0.0000  -0.0000  -0.0000   0.0000   0.0000  -0.2253   0.0000
  24 F_b :4f1-   0.0040  -0.0413   0.1718  -0.0852   0.5685  -0.0000   0.2915
  25 F_b :4f3-  -0.0000   0.0000   0.0000  -0.0000  -0.0000   1.2329  -0.0000
  26 F_b :4f1-   0.0140  -0.1170   0.5482   0.2838   1.8284   0.0000  -1.1219
  29 F_b :5g3-   0.0000  -0.0000  -0.0000   0.0000   0.0000   0.0201   0.0000
  30 F_b :5g1-  -0.0004   0.0021  -0.0077   0.0097  -0.0265   0.0000  -0.0293
  31 F_b :5g3-  -0.0000   0.0000   0.0000  -0.0000  -0.0000  -0.0999  -0.0000
  32 F_b :5g1-  -0.0015   0.0204  -0.0882  -0.0089  -0.2869   0.0000   0.0058

    Orbital         8        9       10       11
   1 F_b :2py   -0.5574   0.1873  -0.0000   0.0907
   2 F_b :2py    0.1196  -0.1317   0.0000  -0.0363
   3 F_b :2py   -0.5907   0.2471   0.0000   0.2753
   4 F_b :2py   13.2275   3.7738   0.0000   2.1300
   5 F_b :2py    0.0097  -0.0101   0.0000  -0.0027
   8 F_b :2py    4.8357  -3.3254  -0.0000   3.4066
   9 F_b :2py   -0.5999  -0.1872   0.0000  -0.0802
  12 F_b :3d1-  -0.0125   0.0058   0.0000  -0.0072
  13 F_b :3d1-   0.0905   0.0807   0.0000   0.0195
  14 F_b :3d1-  -0.5552  -0.1933  -0.0000  -0.2917
  15 F_b :3d1-  -8.5662  -3.1084   0.0000  -1.0210
  16 F_b :3d1-  -1.3875   1.6207   0.0000  -1.3775
  19 F_b :4f3-   0.0000  -0.0000  -0.0142  -0.0000
  20 F_b :4f1-   0.0041   0.0171  -0.0000  -0.0013
  21 F_b :4f3-   0.0000  -0.0000   0.0780  -0.0000
  22 F_b :4f1-  -0.0584  -0.1134  -0.0000   0.0076
  23 F_b :4f3-  -0.0000   0.0000  -0.4592   0.0000
  24 F_b :4f1-   1.0507   1.4857   0.0000  -0.2859
  25 F_b :4f3-   0.0000  -0.0000   0.9512  -0.0000
  26 F_b :4f1-   2.4274   0.1448  -0.0000   0.9830
  27 F_b :5g3-   0.0000  -0.0000  -0.0279  -0.0000
  28 F_b :5g1-   0.0080   0.0067   0.0000  -0.0365
  29 F_b :5g3-  -0.0000   0.0000   0.1475   0.0000
  30 F_b :5g1-  -0.0695  -0.0627  -0.0000   0.2330
  31 F_b :5g3-   0.0000  -0.0000  -1.1011  -0.0000
  32 F_b :5g1-  -0.4883  -0.4733  -0.0000  -1.1645

 Molecular orbitals for symmetry species 8  (Au )
 ------------------------------------------------

    Orbital         1        2        3        4        5        6        7
   3 F_b :3d2-  -0.0019   0.0010   0.0045   0.0000   0.0323  -0.0158  -0.0226
   4 F_b :3d2-   0.0057  -0.0226  -0.0488   0.0000  -0.0268   0.0423   0.0001
   5 F_b :3d2-  -0.0338   0.0273   0.1336   0.0000   0.7711  -0.4227  -0.8704
   6 F_b :3d2-  -0.0598   0.8940  -4.1242   0.0000  -3.7817  -2.9052  -3.6783
   7 F_b :3d2-  -1.8136   1.3654  -0.5252   0.0000   0.0341  -0.6850  -0.0554
   9 F_b :4f2-  -0.0014   0.0027   0.0034   0.0000   0.0149  -0.0049   0.0339
  10 F_b :4f2-   0.0087  -0.0211  -0.0266   0.0000  -0.1150   0.0102  -0.2330
  11 F_b :4f2-  -0.0352   0.0460   0.2487   0.0000   0.8976   0.1291   2.5501
  12 F_b :4f2-   0.3230  -1.7970   2.8688   0.0000   1.8428   2.2716   1.7023
  13 F_b :5g4-   0.0000   0.0000   0.0000   0.0322   0.0000   0.0000   0.0000
  14 F_b :5g2-  -0.0020   0.0078  -0.0087   0.0000  -0.0067  -0.0273  -0.0091
  15 F_b :5g4-   0.0000   0.0000   0.0000  -0.1631   0.0000   0.0000   0.0000
  16 F_b :5g2-   0.0102  -0.0412   0.0476   0.0000   0.0398   0.1452   0.0549
  17 F_b :5g4-   0.0000   0.0000   0.0000   0.9216   0.0000   0.0000   0.0000
  18 F_b :5g2-  -0.0391   0.2464  -0.5378   0.0000  -0.9837  -1.3556  -1.6909

    Orbital         8        9       10
   2 F_b :3d2-   0.0000   0.0109   0.0165
   3 F_b :3d2-   0.0000  -0.0237  -0.0408
   4 F_b :3d2-   0.0000   0.5510   0.9012
   5 F_b :3d2-   0.0000  -0.3098  -1.2503
   6 F_b :3d2-   0.0000   0.1486  -0.5348
   7 F_b :3d2-   0.0000  -0.3029   0.0514
   9 F_b :4f2-   0.0000  -0.0375   0.0302
  10 F_b :4f2-   0.0000   0.6044  -0.6163
  11 F_b :4f2-   0.0000  -0.7436   1.5519
  12 F_b :4f2-   0.0000   0.3324   0.0807
  13 F_b :5g4-   0.1149   0.0000   0.0000
  14 F_b :5g2-   0.0000  -0.0767   0.0528
  15 F_b :5g4-  -0.9333   0.0000   0.0000
  16 F_b :5g2-   0.0000   0.6262  -0.4332
  17 F_b :5g4-   0.4491   0.0000   0.0000
  18 F_b :5g2-   0.0000  -0.1640  -0.4933

  Total CPU  time used in SIRIUS :  30.57 seconds
  Total wall time used in SIRIUS :  30.59 seconds

 
     Date and time (Linux)  : Wed Jan 11 15:39:51 2023
     Host name              : cn018                                   


                     .---------------------------------------.
                     | End of Wave Function Section (SIRIUS) |
                     `---------------------------------------'



                 .------------------------------------------------.
                 | Starting in Dynamic Property Section (RESPONS) |
                 `------------------------------------------------'


 ----------------------------------------------------------------------------------------
  RESPONSE  -  an MCSCF, MC-srDFT, DFT, SOPPA and SOPPA-srDFT response property program
 ----------------------------------------------------------------------------------------


 -------- OUTPUT FROM RESPONSE INPUT PROCESSING --------




 Linear Response calculation
 ---------------------------

 Print level                                    : IPRLR  =   2
 Maximum number of iterations                   : MAXITL =  60
 Threshold for relative convergence             : THCLR  = 1.000D-03
 Maximum iterations in optimal orbital algorithm: MAXITO =   5

  9 B-frequencies  0.000000D+00  1.101744D-02  2.203487D-02  3.305231D-02  4.406975D-02
  5.508719D-02  6.610463D-02  7.712206D-02  8.813950D-02

    1 second order properties calculated with symmetry no.    2 and labels:

          XDIPLEN 

    1 second order properties calculated with symmetry no.    3 and labels:

          YDIPLEN 

    1 second order properties calculated with symmetry no.    5 and labels:

          ZDIPLEN 


   SCF energy         :     -198.769402591185468
 -- inactive part     :     -229.127402111454131
 -- nuclear repulsion :       30.357999520268653


                     ***************************************
                     *** RHF response calculation (TDHF) ***
                     ***************************************

 ----------------------------------------------------------------
 ----- Linear response calculation
 ----- Symmetry of excitation/property operator(s)    2  ( B3u)
 ----------------------------------------------------------------

 Number of excitations of this symmetry            0
 Number of response properties of this symmetry    1
 Number of C6/C8 properties of this symmetry       0


 Perturbation symmetry.     KSYMOP:           2
 Perturbation spin symmetry.TRPLET:           F
 Orbital variables.         KZWOPT:         290
 Configuration variables.   KZCONF:           0
 Total number of variables. KZVAR :         290


 RSPLR -- linear response calculation for symmetry 2  ( B3u)
 RSPLR -- operator label : XDIPLEN 
 RSPLR -- operator spin  :   0
 RSPLR -- frequencies    :     0.000000  0.011017  0.022035  0.033052  0.044070
                               0.055087  0.066105  0.077122  0.088139



 ---  SOLVING SETS OF LINEAR EQUATIONS FOR LINEAR RESPONSE PROPERTIES ---

 Operator symmetry = 2  ( B3u); triplet =   F

RSPORT:    2 out of    9 new trial vectors linear dependent

 ** RSPCTL MICROITERATION NUMBER    1

       No.  Residual tot.,    conf., and orb.    Bnorm      Frequency 
      ----------------------------------------------------------------
         1    6.51357D-01  0.00D+00  6.51D-01  1.52D+00    0.00000D+00
         2    6.51423D-01  0.00D+00  6.51D-01  1.53D+00    1.10174D-02
         3    6.51623D-01  0.00D+00  6.52D-01  1.53D+00    2.20349D-02
         4    6.51958D-01  0.00D+00  6.52D-01  1.53D+00    3.30523D-02
         5    6.52427D-01  0.00D+00  6.52D-01  1.53D+00    4.40697D-02
         6    6.53032D-01  0.00D+00  6.53D-01  1.53D+00    5.50872D-02
         7    6.53776D-01  0.00D+00  6.54D-01  1.54D+00    6.61046D-02
         8    6.54660D-01  0.00D+00  6.55D-01  1.54D+00    7.71221D-02
         9    6.55688D-01  0.00D+00  6.56D-01  1.55D+00    8.81395D-02

 ** RSPCTL MICROITERATION NUMBER    2

       No.  Residual tot.,    conf., and orb.    Bnorm      Frequency 
      ----------------------------------------------------------------
         1    8.16302D-02  0.00D+00  8.16D-02  1.57D+00    0.00000D+00
         2    8.17163D-02  0.00D+00  8.17D-02  1.57D+00    1.10174D-02
         3    8.19790D-02  0.00D+00  8.20D-02  1.57D+00    2.20349D-02
         4    8.24318D-02  0.00D+00  8.24D-02  1.57D+00    3.30523D-02
         5    8.30995D-02  0.00D+00  8.31D-02  1.58D+00    4.40697D-02
         6    8.40211D-02  0.00D+00  8.40D-02  1.58D+00    5.50872D-02
         7    8.52562D-02  0.00D+00  8.53D-02  1.59D+00    6.61046D-02
         8    8.68946D-02  0.00D+00  8.69D-02  1.59D+00    7.71221D-02
         9    8.90736D-02  0.00D+00  8.91D-02  1.60D+00    8.81395D-02

 ** RSPCTL MICROITERATION NUMBER    3

       No.  Residual tot.,    conf., and orb.    Bnorm      Frequency 
      ----------------------------------------------------------------
         1    6.67180D-03  0.00D+00  6.67D-03  1.57D+00    0.00000D+00
         2    6.70661D-03  0.00D+00  6.71D-03  1.57D+00    1.10174D-02
         3    6.81276D-03  0.00D+00  6.81D-03  1.57D+00    2.20349D-02
         4    6.99563D-03  0.00D+00  7.00D-03  1.57D+00    3.30523D-02
         5    7.26495D-03  0.00D+00  7.26D-03  1.58D+00    4.40697D-02
         6    7.63613D-03  0.00D+00  7.64D-03  1.58D+00    5.50872D-02
         7    8.13258D-03  0.00D+00  8.13D-03  1.59D+00    6.61046D-02
         8    8.78981D-03  0.00D+00  8.79D-03  1.59D+00    7.71221D-02
         9    9.66251D-03  0.00D+00  9.66D-03  1.60D+00    8.81395D-02

 ** RSPCTL MICROITERATION NUMBER    4

       No.  Residual tot.,    conf., and orb.    Bnorm      Frequency 
      ----------------------------------------------------------------
         1    6.35484D-04  0.00D+00  6.35D-04  1.57D+00    0.00000D+00
         2    6.43346D-04  0.00D+00  6.43D-04  1.57D+00    1.10174D-02
         3    6.67081D-04  0.00D+00  6.67D-04  1.57D+00    2.20349D-02
         4    7.07206D-04  0.00D+00  7.07D-04  1.57D+00    3.30523D-02
         5    7.64818D-04  0.00D+00  7.65D-04  1.58D+00    4.40697D-02
         6    8.41927D-04  0.00D+00  8.42D-04  1.58D+00    5.50872D-02
         7    9.41943D-04  0.00D+00  9.42D-04  1.59D+00    6.61046D-02
         8    1.07042D-03  0.00D+00  1.07D-03  1.59D+00    7.71221D-02
         9    1.23629D-03  0.00D+00  1.24D-03  1.60D+00    8.81395D-02

 *** THE REQUESTED    9 SOLUTION VECTORS CONVERGED

 Convergence of RSP solution vectors, threshold = 1.00D-03
 ---------------------------------------------------------------
 (dimension of paired reduced space:   68)
 RSP solution vector no.    1; norm of residual   4.05D-04
 RSP solution vector no.    2; norm of residual   4.10D-04
 RSP solution vector no.    3; norm of residual   4.25D-04
 RSP solution vector no.    4; norm of residual   4.50D-04
 RSP solution vector no.    5; norm of residual   4.85D-04
 RSP solution vector no.    6; norm of residual   5.32D-04
 RSP solution vector no.    7; norm of residual   5.94D-04
 RSP solution vector no.    8; norm of residual   6.72D-04
 RSP solution vector no.    9; norm of residual   7.72D-04

 *** RSPCTL MICROITERATIONS CONVERGED


           Final output of second order properties from linear response
           ------------------------------------------------------------


@ Spin symmetry of operators: singlet

 Note that minus the linear response function: - << A; B >>(omega) is printed.
 The results are of quadratic accuracy using Sellers formula.

@ FREQUENCY INDEPENDENT SECOND ORDER PROPERTIES

@ -<< XDIPLEN  ; XDIPLEN  >> =  5.567233454122E+00

@ FREQUENCY DEPENDENT SECOND ORDER PROPERTIES WITH FREQUENCY :

@    a.u.:  1.1017437D-02
@    cm-1:  2.4180480D+03
@    eV  :  2.9979972D-01
@  kJ/mol:  2.8926278D+01
@    nm  :  4.1355672D+03

@ -<< XDIPLEN  ; XDIPLEN  >> =  5.567973514672E+00

@ FREQUENCY DEPENDENT SECOND ORDER PROPERTIES WITH FREQUENCY :

@    a.u.:  2.2034875D-02
@    cm-1:  4.8360960D+03
@    eV  :  5.9959945D-01
@  kJ/mol:  5.7852555D+01
@    nm  :  2.0677836D+03

@ -<< XDIPLEN  ; XDIPLEN  >> =  5.570196236572E+00

@ FREQUENCY DEPENDENT SECOND ORDER PROPERTIES WITH FREQUENCY :

@    a.u.:  3.3052313D-02
@    cm-1:  7.2541440D+03
@    eV  :  8.9939917D-01
@  kJ/mol:  8.6778833D+01
@    nm  :  1.3785224D+03

@ -<< XDIPLEN  ; XDIPLEN  >> =  5.573909341212E+00

@ FREQUENCY DEPENDENT SECOND ORDER PROPERTIES WITH FREQUENCY :

@    a.u.:  4.4069750D-02
@    cm-1:  9.6721920D+03
@    eV  :  1.1991989D+00
@  kJ/mol:  1.1570511D+02
@    nm  :  1.0338918D+03

@ -<< XDIPLEN  ; XDIPLEN  >> =  5.579126053302E+00

@ FREQUENCY DEPENDENT SECOND ORDER PROPERTIES WITH FREQUENCY :

@    a.u.:  5.5087187D-02
@    cm-1:  1.2090240D+04
@    eV  :  1.4989986D+00
@  kJ/mol:  1.4463139D+02
@    nm  :  8.2711344D+02

@ -<< XDIPLEN  ; XDIPLEN  >> =  5.585865713083E+00

@ FREQUENCY DEPENDENT SECOND ORDER PROPERTIES WITH FREQUENCY :

@    a.u.:  6.6104625D-02
@    cm-1:  1.4508288D+04
@    eV  :  1.7987983D+00
@  kJ/mol:  1.7355767D+02
@    nm  :  6.8926120D+02

@ -<< XDIPLEN  ; XDIPLEN  >> =  5.594154823232E+00

@ FREQUENCY DEPENDENT SECOND ORDER PROPERTIES WITH FREQUENCY :

@    a.u.:  7.7122062D-02
@    cm-1:  1.6926336D+04
@    eV  :  2.0985981D+00
@  kJ/mol:  2.0248394D+02
@    nm  :  5.9079531D+02

@ -<< XDIPLEN  ; XDIPLEN  >> =  5.604028817365E+00

@ FREQUENCY DEPENDENT SECOND ORDER PROPERTIES WITH FREQUENCY :

@    a.u.:  8.8139500D-02
@    cm-1:  1.9344384D+04
@    eV  :  2.3983978D+00
@  kJ/mol:  2.3141022D+02
@    nm  :  5.1694590D+02

@ -<< XDIPLEN  ; XDIPLEN  >> =  5.615535131832E+00


 Time used in linear response calculation is     27.87 CPU seconds for symmetry 2
 ----------------------------------------------------------------
 ----- Linear response calculation
 ----- Symmetry of excitation/property operator(s)    3  ( B2u)
 ----------------------------------------------------------------

 Number of excitations of this symmetry            0
 Number of response properties of this symmetry    1
 Number of C6/C8 properties of this symmetry       0


 Perturbation symmetry.     KSYMOP:           3
 Perturbation spin symmetry.TRPLET:           F
 Orbital variables.         KZWOPT:         290
 Configuration variables.   KZCONF:           0
 Total number of variables. KZVAR :         290


 RSPLR -- linear response calculation for symmetry 3  ( B2u)
 RSPLR -- operator label : YDIPLEN 
 RSPLR -- operator spin  :   0
 RSPLR -- frequencies    :     0.000000  0.011017  0.022035  0.033052  0.044070
                               0.055087  0.066105  0.077122  0.088139



 ---  SOLVING SETS OF LINEAR EQUATIONS FOR LINEAR RESPONSE PROPERTIES ---

 Operator symmetry = 3  ( B2u); triplet =   F

RSPORT:    2 out of    9 new trial vectors linear dependent

 ** RSPCTL MICROITERATION NUMBER    1

       No.  Residual tot.,    conf., and orb.    Bnorm      Frequency 
      ----------------------------------------------------------------
         1    6.79792D-01  0.00D+00  6.80D-01  1.52D+00    0.00000D+00
         2    6.79870D-01  0.00D+00  6.80D-01  1.52D+00    1.10174D-02
         3    6.80107D-01  0.00D+00  6.80D-01  1.53D+00    2.20349D-02
         4    6.80501D-01  0.00D+00  6.81D-01  1.53D+00    3.30523D-02
         5    6.81055D-01  0.00D+00  6.81D-01  1.53D+00    4.40697D-02
         6    6.81770D-01  0.00D+00  6.82D-01  1.53D+00    5.50872D-02
         7    6.82649D-01  0.00D+00  6.83D-01  1.54D+00    6.61046D-02
         8    6.83694D-01  0.00D+00  6.84D-01  1.54D+00    7.71221D-02
         9    6.84909D-01  0.00D+00  6.85D-01  1.55D+00    8.81395D-02

 ** RSPCTL MICROITERATION NUMBER    2

       No.  Residual tot.,    conf., and orb.    Bnorm      Frequency 
      ----------------------------------------------------------------
         1    8.17928D-02  0.00D+00  8.18D-02  1.57D+00    0.00000D+00
         2    8.18654D-02  0.00D+00  8.19D-02  1.57D+00    1.10174D-02
         3    8.20868D-02  0.00D+00  8.21D-02  1.57D+00    2.20349D-02
         4    8.24679D-02  0.00D+00  8.25D-02  1.57D+00    3.30523D-02
         5    8.30289D-02  0.00D+00  8.30D-02  1.58D+00    4.40697D-02
         6    8.38013D-02  0.00D+00  8.38D-02  1.58D+00    5.50872D-02
         7    8.48336D-02  0.00D+00  8.48D-02  1.59D+00    6.61046D-02
         8    8.61988D-02  0.00D+00  8.62D-02  1.59D+00    7.71221D-02
         9    8.80093D-02  0.00D+00  8.80D-02  1.60D+00    8.81395D-02

 ** RSPCTL MICROITERATION NUMBER    3

       No.  Residual tot.,    conf., and orb.    Bnorm      Frequency 
      ----------------------------------------------------------------
         1    5.46828D-03  0.00D+00  5.47D-03  1.57D+00    0.00000D+00
         2    5.48429D-03  0.00D+00  5.48D-03  1.57D+00    1.10174D-02
         3    5.53316D-03  0.00D+00  5.53D-03  1.57D+00    2.20349D-02
         4    5.61754D-03  0.00D+00  5.62D-03  1.57D+00    3.30523D-02
         5    5.74223D-03  0.00D+00  5.74D-03  1.58D+00    4.40697D-02
         6    5.91489D-03  0.00D+00  5.91D-03  1.58D+00    5.50872D-02
         7    6.14728D-03  0.00D+00  6.15D-03  1.59D+00    6.61046D-02
         8    6.45734D-03  0.00D+00  6.46D-03  1.59D+00    7.71221D-02
         9    6.87305D-03  0.00D+00  6.87D-03  1.60D+00    8.81395D-02

 ** RSPCTL MICROITERATION NUMBER    4

       No.  Residual tot.,    conf., and orb.    Bnorm      Frequency 
      ----------------------------------------------------------------
         1    4.90670D-04  0.00D+00  4.91D-04  1.57D+00    0.00000D+00
         2    4.93383D-04  0.00D+00  4.93D-04  1.57D+00    1.10174D-02
         3    5.01657D-04  0.00D+00  5.02D-04  1.57D+00    2.20349D-02
         4    5.15924D-04  0.00D+00  5.16D-04  1.57D+00    3.30523D-02
         5    5.36965D-04  0.00D+00  5.37D-04  1.58D+00    4.40697D-02
         6    5.66019D-04  0.00D+00  5.66D-04  1.58D+00    5.50872D-02
         7    6.04978D-04  0.00D+00  6.05D-04  1.59D+00    6.61046D-02
         8    6.56714D-04  0.00D+00  6.57D-04  1.59D+00    7.71221D-02
         9    7.25675D-04  0.00D+00  7.26D-04  1.60D+00    8.81395D-02

 *** THE REQUESTED    9 SOLUTION VECTORS CONVERGED

 Convergence of RSP solution vectors, threshold = 1.00D-03
 ---------------------------------------------------------------
 (dimension of paired reduced space:   68)
 RSP solution vector no.    1; norm of residual   3.13D-04
 RSP solution vector no.    2; norm of residual   3.14D-04
 RSP solution vector no.    3; norm of residual   3.19D-04
 RSP solution vector no.    4; norm of residual   3.28D-04
 RSP solution vector no.    5; norm of residual   3.41D-04
 RSP solution vector no.    6; norm of residual   3.58D-04
 RSP solution vector no.    7; norm of residual   3.81D-04
 RSP solution vector no.    8; norm of residual   4.12D-04
 RSP solution vector no.    9; norm of residual   4.53D-04

 *** RSPCTL MICROITERATIONS CONVERGED


           Final output of second order properties from linear response
           ------------------------------------------------------------


@ Spin symmetry of operators: singlet

 Note that minus the linear response function: - << A; B >>(omega) is printed.
 The results are of quadratic accuracy using Sellers formula.

@ FREQUENCY INDEPENDENT SECOND ORDER PROPERTIES

@ -<< YDIPLEN  ; YDIPLEN  >> =  5.567233448430E+00

@ FREQUENCY DEPENDENT SECOND ORDER PROPERTIES WITH FREQUENCY :

@    a.u.:  1.1017437D-02
@    cm-1:  2.4180480D+03
@    eV  :  2.9979972D-01
@  kJ/mol:  2.8926278D+01
@    nm  :  4.1355672D+03

@ -<< YDIPLEN  ; YDIPLEN  >> =  5.567973508951E+00

@ FREQUENCY DEPENDENT SECOND ORDER PROPERTIES WITH FREQUENCY :

@    a.u.:  2.2034875D-02
@    cm-1:  4.8360960D+03
@    eV  :  5.9959945D-01
@  kJ/mol:  5.7852555D+01
@    nm  :  2.0677836D+03

@ -<< YDIPLEN  ; YDIPLEN  >> =  5.570196230761E+00

@ FREQUENCY DEPENDENT SECOND ORDER PROPERTIES WITH FREQUENCY :

@    a.u.:  3.3052313D-02
@    cm-1:  7.2541440D+03
@    eV  :  8.9939917D-01
@  kJ/mol:  8.6778833D+01
@    nm  :  1.3785224D+03

@ -<< YDIPLEN  ; YDIPLEN  >> =  5.573909335245E+00

@ FREQUENCY DEPENDENT SECOND ORDER PROPERTIES WITH FREQUENCY :

@    a.u.:  4.4069750D-02
@    cm-1:  9.6721920D+03
@    eV  :  1.1991989D+00
@  kJ/mol:  1.1570511D+02
@    nm  :  1.0338918D+03

@ -<< YDIPLEN  ; YDIPLEN  >> =  5.579126047105E+00

@ FREQUENCY DEPENDENT SECOND ORDER PROPERTIES WITH FREQUENCY :

@    a.u.:  5.5087187D-02
@    cm-1:  1.2090240D+04
@    eV  :  1.4989986D+00
@  kJ/mol:  1.4463139D+02
@    nm  :  8.2711344D+02

@ -<< YDIPLEN  ; YDIPLEN  >> =  5.585865706570E+00

@ FREQUENCY DEPENDENT SECOND ORDER PROPERTIES WITH FREQUENCY :

@    a.u.:  6.6104625D-02
@    cm-1:  1.4508288D+04
@    eV  :  1.7987983D+00
@  kJ/mol:  1.7355767D+02
@    nm  :  6.8926120D+02

@ -<< YDIPLEN  ; YDIPLEN  >> =  5.594154816296E+00

@ FREQUENCY DEPENDENT SECOND ORDER PROPERTIES WITH FREQUENCY :

@    a.u.:  7.7122062D-02
@    cm-1:  1.6926336D+04
@    eV  :  2.0985981D+00
@  kJ/mol:  2.0248394D+02
@    nm  :  5.9079531D+02

@ -<< YDIPLEN  ; YDIPLEN  >> =  5.604028809868E+00

@ FREQUENCY DEPENDENT SECOND ORDER PROPERTIES WITH FREQUENCY :

@    a.u.:  8.8139500D-02
@    cm-1:  1.9344384D+04
@    eV  :  2.3983978D+00
@  kJ/mol:  2.3141022D+02
@    nm  :  5.1694590D+02

@ -<< YDIPLEN  ; YDIPLEN  >> =  5.615535123590E+00


 Time used in linear response calculation is     27.87 CPU seconds for symmetry 3
 ----------------------------------------------------------------
 ----- Linear response calculation
 ----- Symmetry of excitation/property operator(s)    5  ( B1u)
 ----------------------------------------------------------------

 Number of excitations of this symmetry            0
 Number of response properties of this symmetry    1
 Number of C6/C8 properties of this symmetry       0


 Perturbation symmetry.     KSYMOP:           5
 Perturbation spin symmetry.TRPLET:           F
 Orbital variables.         KZWOPT:         372
 Configuration variables.   KZCONF:           0
 Total number of variables. KZVAR :         372


 RSPLR -- linear response calculation for symmetry 5  ( B1u)
 RSPLR -- operator label : ZDIPLEN 
 RSPLR -- operator spin  :   0
 RSPLR -- frequencies    :     0.000000  0.011017  0.022035  0.033052  0.044070
                               0.055087  0.066105  0.077122  0.088139



 ---  SOLVING SETS OF LINEAR EQUATIONS FOR LINEAR RESPONSE PROPERTIES ---

 Operator symmetry = 5  ( B1u); triplet =   F

RSPORT:    2 out of    9 new trial vectors linear dependent

 ** RSPCTL MICROITERATION NUMBER    1

       No.  Residual tot.,    conf., and orb.    Bnorm      Frequency 
      ----------------------------------------------------------------
         1    3.75194D+00  0.00D+00  3.75D+00  2.40D+00    0.00000D+00
         2    3.75323D+00  0.00D+00  3.75D+00  2.40D+00    1.10174D-02
         3    3.75713D+00  0.00D+00  3.76D+00  2.41D+00    2.20349D-02
         4    3.76364D+00  0.00D+00  3.76D+00  2.41D+00    3.30523D-02
         5    3.77280D+00  0.00D+00  3.77D+00  2.42D+00    4.40697D-02
         6    3.78464D+00  0.00D+00  3.78D+00  2.44D+00    5.50872D-02
         7    3.79921D+00  0.00D+00  3.80D+00  2.45D+00    6.61046D-02
         8    3.81658D+00  0.00D+00  3.82D+00  2.47D+00    7.71221D-02
         9    3.83683D+00  0.00D+00  3.84D+00  2.49D+00    8.81395D-02

 ** RSPCTL MICROITERATION NUMBER    2

       No.  Residual tot.,    conf., and orb.    Bnorm      Frequency 
      ----------------------------------------------------------------
         1    1.05769D+00  0.00D+00  1.06D+00  3.36D+00    0.00000D+00
         2    1.05830D+00  0.00D+00  1.06D+00  3.36D+00    1.10174D-02
         3    1.06014D+00  0.00D+00  1.06D+00  3.37D+00    2.20349D-02
         4    1.06322D+00  0.00D+00  1.06D+00  3.38D+00    3.30523D-02
         5    1.06756D+00  0.00D+00  1.07D+00  3.40D+00    4.40697D-02
         6    1.07319D+00  0.00D+00  1.07D+00  3.42D+00    5.50872D-02
         7    1.08015D+00  0.00D+00  1.08D+00  3.45D+00    6.61046D-02
         8    1.08849D+00  0.00D+00  1.09D+00  3.49D+00    7.71221D-02
         9    1.09826D+00  0.00D+00  1.10D+00  3.53D+00    8.81395D-02

 ** RSPCTL MICROITERATION NUMBER    3

       No.  Residual tot.,    conf., and orb.    Bnorm      Frequency 
      ----------------------------------------------------------------
         1    1.24454D-01  0.00D+00  1.24D-01  3.42D+00    0.00000D+00
         2    1.24542D-01  0.00D+00  1.25D-01  3.43D+00    1.10174D-02
         3    1.24808D-01  0.00D+00  1.25D-01  3.44D+00    2.20349D-02
         4    1.25254D-01  0.00D+00  1.25D-01  3.45D+00    3.30523D-02
         5    1.25882D-01  0.00D+00  1.26D-01  3.47D+00    4.40697D-02
         6    1.26697D-01  0.00D+00  1.27D-01  3.49D+00    5.50872D-02
         7    1.27705D-01  0.00D+00  1.28D-01  3.52D+00    6.61046D-02
         8    1.28914D-01  0.00D+00  1.29D-01  3.56D+00    7.71221D-02
         9    1.30332D-01  0.00D+00  1.30D-01  3.60D+00    8.81395D-02

 ** RSPCTL MICROITERATION NUMBER    4

       No.  Residual tot.,    conf., and orb.    Bnorm      Frequency 
      ----------------------------------------------------------------
         1    1.17530D-02  0.00D+00  1.18D-02  3.42D+00    0.00000D+00
         2    1.17629D-02  0.00D+00  1.18D-02  3.43D+00    1.10174D-02
         3    1.17929D-02  0.00D+00  1.18D-02  3.44D+00    2.20349D-02
         4    1.18430D-02  0.00D+00  1.18D-02  3.45D+00    3.30523D-02
         5    1.19137D-02  0.00D+00  1.19D-02  3.47D+00    4.40697D-02
         6    1.20055D-02  0.00D+00  1.20D-02  3.49D+00    5.50872D-02
         7    1.21191D-02  0.00D+00  1.21D-02  3.53D+00    6.61046D-02
         8    1.22553D-02  0.00D+00  1.23D-02  3.56D+00    7.71221D-02
         9    1.24152D-02  0.00D+00  1.24D-02  3.61D+00    8.81395D-02

 ** RSPCTL MICROITERATION NUMBER    5

       No.  Residual tot.,    conf., and orb.    Bnorm      Frequency 
      ----------------------------------------------------------------
         1    1.15417D-03  0.00D+00  1.15D-03  3.43D+00    0.00000D+00
         2    1.15549D-03  0.00D+00  1.16D-03  3.43D+00    1.10174D-02
         3    1.15947D-03  0.00D+00  1.16D-03  3.44D+00    2.20349D-02
         4    1.16613D-03  0.00D+00  1.17D-03  3.45D+00    3.30523D-02
         5    1.17553D-03  0.00D+00  1.18D-03  3.47D+00    4.40697D-02
         6    1.18774D-03  0.00D+00  1.19D-03  3.49D+00    5.50872D-02
         7    1.20287D-03  0.00D+00  1.20D-03  3.53D+00    6.61046D-02
         8    1.22104D-03  0.00D+00  1.22D-03  3.56D+00    7.71221D-02
         9    1.24240D-03  0.00D+00  1.24D-03  3.61D+00    8.81395D-02

 *** THE REQUESTED    9 SOLUTION VECTORS CONVERGED

 Convergence of RSP solution vectors, threshold = 1.00D-03
 ---------------------------------------------------------------
 (dimension of paired reduced space:   86)
 RSP solution vector no.    1; norm of residual   3.37D-04
 RSP solution vector no.    2; norm of residual   3.37D-04
 RSP solution vector no.    3; norm of residual   3.37D-04
 RSP solution vector no.    4; norm of residual   3.38D-04
 RSP solution vector no.    5; norm of residual   3.39D-04
 RSP solution vector no.    6; norm of residual   3.40D-04
 RSP solution vector no.    7; norm of residual   3.41D-04
 RSP solution vector no.    8; norm of residual   3.43D-04
 RSP solution vector no.    9; norm of residual   3.45D-04

 *** RSPCTL MICROITERATIONS CONVERGED


           Final output of second order properties from linear response
           ------------------------------------------------------------


@ Spin symmetry of operators: singlet

 Note that minus the linear response function: - << A; B >>(omega) is printed.
 The results are of quadratic accuracy using Sellers formula.

@ FREQUENCY INDEPENDENT SECOND ORDER PROPERTIES

@ -<< ZDIPLEN  ; ZDIPLEN  >> =  1.464950946636E+01

@ FREQUENCY DEPENDENT SECOND ORDER PROPERTIES WITH FREQUENCY :

@    a.u.:  1.1017437D-02
@    cm-1:  2.4180480D+03
@    eV  :  2.9979972D-01
@  kJ/mol:  2.8926278D+01
@    nm  :  4.1355672D+03

@ -<< ZDIPLEN  ; ZDIPLEN  >> =  1.465561202632E+01

@ FREQUENCY DEPENDENT SECOND ORDER PROPERTIES WITH FREQUENCY :

@    a.u.:  2.2034875D-02
@    cm-1:  4.8360960D+03
@    eV  :  5.9959945D-01
@  kJ/mol:  5.7852555D+01
@    nm  :  2.0677836D+03

@ -<< ZDIPLEN  ; ZDIPLEN  >> =  1.467395778464E+01

@ FREQUENCY DEPENDENT SECOND ORDER PROPERTIES WITH FREQUENCY :

@    a.u.:  3.3052313D-02
@    cm-1:  7.2541440D+03
@    eV  :  8.9939917D-01
@  kJ/mol:  8.6778833D+01
@    nm  :  1.3785224D+03

@ -<< ZDIPLEN  ; ZDIPLEN  >> =  1.470466159767E+01

@ FREQUENCY DEPENDENT SECOND ORDER PROPERTIES WITH FREQUENCY :

@    a.u.:  4.4069750D-02
@    cm-1:  9.6721920D+03
@    eV  :  1.1991989D+00
@  kJ/mol:  1.1570511D+02
@    nm  :  1.0338918D+03

@ -<< ZDIPLEN  ; ZDIPLEN  >> =  1.474791698224E+01

@ FREQUENCY DEPENDENT SECOND ORDER PROPERTIES WITH FREQUENCY :

@    a.u.:  5.5087187D-02
@    cm-1:  1.2090240D+04
@    eV  :  1.4989986D+00
@  kJ/mol:  1.4463139D+02
@    nm  :  8.2711344D+02

@ -<< ZDIPLEN  ; ZDIPLEN  >> =  1.480399931805E+01

@ FREQUENCY DEPENDENT SECOND ORDER PROPERTIES WITH FREQUENCY :

@    a.u.:  6.6104625D-02
@    cm-1:  1.4508288D+04
@    eV  :  1.7987983D+00
@  kJ/mol:  1.7355767D+02
@    nm  :  6.8926120D+02

@ -<< ZDIPLEN  ; ZDIPLEN  >> =  1.487327047085E+01

@ FREQUENCY DEPENDENT SECOND ORDER PROPERTIES WITH FREQUENCY :

@    a.u.:  7.7122062D-02
@    cm-1:  1.6926336D+04
@    eV  :  2.0985981D+00
@  kJ/mol:  2.0248394D+02
@    nm  :  5.9079531D+02

@ -<< ZDIPLEN  ; ZDIPLEN  >> =  1.495618498465E+01

@ FREQUENCY DEPENDENT SECOND ORDER PROPERTIES WITH FREQUENCY :

@    a.u.:  8.8139500D-02
@    cm-1:  1.9344384D+04
@    eV  :  2.3983978D+00
@  kJ/mol:  2.3141022D+02
@    nm  :  5.1694590D+02

@ -<< ZDIPLEN  ; ZDIPLEN  >> =  1.505329804652E+01


 Time used in linear response calculation is     35.03 CPU seconds for symmetry 5

  Total CPU  time used in RESPONSE:  1 minute  31 seconds
  Total wall time used in RESPONSE:  1 minute  31 seconds


                   .-------------------------------------------.
                   | End of Dynamic Property Section (RESPONS) |
                   `-------------------------------------------'

  Total CPU  time used in DALTON:  2 minutes  2 seconds
  Total wall time used in DALTON:  2 minutes  2 seconds

 
     Date and time (Linux)  : Wed Jan 11 15:41:22 2023
     Host name              : cn018                                   
