

     ************************************************************************
     *************** Dalton - An Electronic Structure Program ***************
     ************************************************************************

    This is output from DALTON release Dalton2020.0 (2020)
         ( Web site: http://daltonprogram.org )

   ----------------------------------------------------------------------------

    NOTE:
     
    Dalton is an experimental code for the evaluation of molecular
    properties using (MC)SCF, DFT, CI, and CC wave functions.
    The authors accept no responsibility for the performance of
    the code or for the correctness of the results.
     
    The code (in whole or part) is provided under a licence and
    is not to be reproduced for further distribution without
    the written permission of the authors or their representatives.
     
    See the home page "http://daltonprogram.org" for further information.
     
    If results obtained with this code are published,
    the appropriate citations would be both of:
     
       K. Aidas, C. Angeli, K. L. Bak, V. Bakken, R. Bast,
       L. Boman, O. Christiansen, R. Cimiraglia, S. Coriani,
       P. Dahle, E. K. Dalskov, U. Ekstroem,
       T. Enevoldsen, J. J. Eriksen, P. Ettenhuber, B. Fernandez,
       L. Ferrighi, H. Fliegl, L. Frediani, K. Hald, A. Halkier,
       C. Haettig, H. Heiberg, T. Helgaker, A. C. Hennum,
       H. Hettema, E. Hjertenaes, S. Hoest, I.-M. Hoeyvik,
       M. F. Iozzi, B. Jansik, H. J. Aa. Jensen, D. Jonsson,
       P. Joergensen, J. Kauczor, S. Kirpekar,
       T. Kjaergaard, W. Klopper, S. Knecht, R. Kobayashi, H. Koch,
       J. Kongsted, A. Krapp, K. Kristensen, A. Ligabue,
       O. B. Lutnaes, J. I. Melo, K. V. Mikkelsen, R. H. Myhre,
       C. Neiss, C. B. Nielsen, P. Norman, J. Olsen,
       J. M. H. Olsen, A. Osted, M. J. Packer, F. Pawlowski,
       T. B. Pedersen, P. F. Provasi, S. Reine, Z. Rinkevicius,
       T. A. Ruden, K. Ruud, V. Rybkin, P. Salek, C. C. M. Samson,
       A. Sanchez de Meras, T. Saue, S. P. A. Sauer,
       B. Schimmelpfennig, K. Sneskov, A. H. Steindal,
       K. O. Sylvester-Hvid, P. R. Taylor, A. M. Teale,
       E. I. Tellgren, D. P. Tew, A. J. Thorvaldsen, L. Thoegersen,
       O. Vahtras, M. A. Watson, D. J. D. Wilson, M. Ziolkowski
       and H. Agren,
       "The Dalton quantum chemistry program system",
       WIREs Comput. Mol. Sci. 2014, 4:269–284 (doi: 10.1002/wcms.1172)
     
    and
     
       Dalton, a molecular electronic structure program,
       Release Dalton2020.0 (2020), see http://daltonprogram.org
   ----------------------------------------------------------------------------

    Authors in alphabetical order (Major contribution(s) in parenthesis):

  Kestutis Aidas,           Vilnius University,           Lithuania   (QM/MM)
  Celestino Angeli,         University of Ferrara,        Italy       (NEVPT2)
  Keld L. Bak,              UNI-C,                        Denmark     (AOSOPPA, non-adiabatic coupling, magnetic properties)
  Vebjoern Bakken,          University of Oslo,           Norway      (DALTON; geometry optimizer, symmetry detection)
  Radovan Bast,             UiT The Arctic U. of Norway,  Norway      (DALTON installation and execution frameworks)
  Pablo Baudin,             University of Valencia,       Spain       (Cholesky excitation energies)
  Linus Boman,              NTNU,                         Norway      (Cholesky decomposition and subsystems)
  Bruno N. Cabral Tenorio,  Technical Univ. of Denmark,   Denmark     (Lanczos-based CC methods)
  Ove Christiansen,         Aarhus University,            Denmark     (CC module)
  Renzo Cimiraglia,         University of Ferrara,        Italy       (NEVPT2)
  Sonia Coriani,            Technical Univ. of Denmark,   Denmark     (CC and RESPONS modules)
  Janusz Cukras,            University of Warsaw,         Poland      (MChD in RESPONS)
  Paal Dahle,               University of Oslo,           Norway      (Parallelization)
  Erik K. Dalskov,          UNI-C,                        Denmark     (SOPPA)
  Thomas Enevoldsen,        Univ. of Southern Denmark,    Denmark     (SOPPA)
  Janus J. Eriksen,         Aarhus University,            Denmark     (Polarizable embedding, TDA)
  Rasmus Faber,             Technical Univ. of Denmark,   Denmark     (Vib.avg. NMR w. SOPPA, parallel AO-SOPPA, CVS-CC and EOMCC)
  Tobias Fahleson,          KTH Stockholm,                Sweden      (Damped cubic response)
  Berta Fernandez,          U. of Santiago de Compostela, Spain       (Doublet spin, ESR in RESPONS)
  Lara Ferrighi,            Aarhus University,            Denmark     (PCM Cubic response)
  Heike Fliegl,             University of Oslo,           Norway      (CCSD(R12))
  Luca Frediani,            UiT The Arctic U. of Norway,  Norway      (PCM)
  Emmanuel Fromager,        Univ. Strasbourg,             France      (MC-srDFT)
  Bin Gao,                  UiT The Arctic U. of Norway,  Norway      (Gen1Int library)
  Andre S. P. Gomes,        CNRS/Universite de Lille,     France      (Frozen density embedding)
  Christof Haettig,         Ruhr-University Bochum,       Germany     (CC module)
  Kasper Hald,              Aarhus University,            Denmark     (CC module)
  Asger Halkier,            Aarhus University,            Denmark     (CC module)
  Frederik Beyer Hansen,    University of Copenhagen,     Denmark     (Parallel AO-SOPPA)
  Erik D. Hedegaard,        Univ. of Southern Denmark,    Denmark     (Polarizable embedding, QM/MM, and MC-srDFT)
  Hanne Heiberg,            University of Oslo,           Norway      (Geometry analysis, selected one-electron integrals)
  Trygve Helgaker,          University of Oslo,           Norway      (DALTON; ABACUS, ERI, DFT modules, London, and much more)
  Alf Christian Hennum,     University of Oslo,           Norway      (Parity violation)
  Hinne Hettema,            University of Auckland,       New Zealand (Quadratic response in RESPONS; SIRIUS supersymmetry)
  Eirik Hjertenaes,         NTNU,                         Norway      (Cholesky decomposition)
  Pi A. B. Haase,           University of Copenhagen,     Denmark     (Triplet AO-SOPPA)
  Maria Francesca Iozzi,    University of Oslo,           Norway      (RPA)
  Christoph Jacob           TU Braunschweig               Germany     (Frozen density embedding)
  Brano Jansik              Technical Univ. of Ostrava    Czech Rep.  (DFT cubic response)
  Hans Joergen Aa. Jensen,  Univ. of Southern Denmark,    Denmark     (DALTON; SIRIUS, RESPONS, ABACUS, MC-srDFT, and much more)
  Dan Jonsson,              UiT The Arctic U. of Norway,  Norway      (Cubic response in RESPONS module)
  Poul Joergensen,          Aarhus University,            Denmark     (RESPONS, ABACUS, and CC modules)
  Maciej Kaminski,          University of Warsaw,         Poland      (CPPh in RESPONS)
  Joanna Kauczor,           Linkoeping University,        Sweden      (Complex polarization propagator (CPP) module)
  Sheela Kirpekar,          Univ. of Southern Denmark,    Denmark     (Mass-velocity & Darwin integrals)
  Erik Kjellgren,           Univ. of Southern Denmark,    Denmark     (MC-srDFT)
  Wim Klopper,              KIT Karlsruhe,                Germany     (R12 code in CC, SIRIUS, and ABACUS modules)
  Stefan Knecht,            ETH Zurich,                   Switzerland (Parallel CI and MCSCF, MC-srDFT)
  Rika Kobayashi,           Australian National Univ.,    Australia   (DIIS in CC, London in MCSCF)
  Henrik Koch,              NTNU,                         Norway      (CC module, Cholesky decomposition)
  Jacob Kongsted,           Univ. of Southern Denmark,    Denmark     (Polarizable embedding, polarizable density embedding, QM/MM)
  Andrea Ligabue,           University of Modena,         Italy       (CTOCD, AOSOPPA)
  Nanna H. List             Univ. of Southern Denmark,    Denmark     (Polarizable embedding)
  Ola B. Lutnaes,           University of Oslo,           Norway      (DFT Hessian)
  Juan I. Melo,             University of Buenos Aires,   Argentina   (LRESC, Relativistic Effects on NMR Shieldings)
  Kurt V. Mikkelsen,        University of Copenhagen,     Denmark     (MC-SCRF and QM/MM)
  Rolf H. Myhre,            NTNU,                         Norway      (Subsystems and CC3)
  Christian Neiss,          Univ. Erlangen-Nuernberg,     Germany     (CCSD(R12))
  Christian B. Nielsen,     University of Copenhagen,     Denmark     (QM/MM)
  Patrick Norman,           KTH Stockholm,                Sweden      (Cubic response and complex frequency response in RESPONS)
  Jeppe Olsen,              Aarhus University,            Denmark     (SIRIUS CI/density modules)
  Jogvan Magnus H. Olsen,   Aarhus University,            Denmark     (Polarizable embedding and polarizable density embedding)
  Anders Osted,             Copenhagen University,        Denmark     (QM/MM)
  Martin J. Packer,         University of Sheffield,      UK          (SOPPA)
  Filip Pawlowski,          Kazimierz Wielki University,  Poland      (CC3)
  Morten N. Pedersen,       Univ. of Southern Denmark,    Denmark     (Polarizable embedding)
  Thomas B. Pedersen,       University of Oslo,           Norway      (Cholesky decomposition)
  Patricio F. Provasi,      University of Northeastern,   Argentina   (Analysis of coupling constants in localized orbitals)
  Peter Reinholdt,          Univ. of Southern Denmark,    Denmark     (Polarizable embedding and polarizable density embedding)
  Zilvinas Rinkevicius,     KTH Stockholm,                Sweden      (open-shell DFT, ESR)
  Elias Rudberg,            KTH Stockholm,                Sweden      (DFT grid and basis info)
  Torgeir A. Ruden,         University of Oslo,           Norway      (Numerical derivatives in ABACUS)
  Kenneth Ruud,             UiT The Arctic U. of Norway,  Norway      (DALTON; ABACUS magnetic properties and much more)
  Pawel Salek,              KTH Stockholm,                Sweden      (DALTON; DFT code)
  Claire C. M. Samson       University of Karlsruhe       Germany     (Boys localization, r12 integrals in ERI)
  Alfredo Sanchez de Meras, University of Valencia,       Spain       (CC module, Cholesky decomposition)
  Trond Saue,               Paul Sabatier University,     France      (direct Fock matrix construction)
  Stephan P. A. Sauer,      University of Copenhagen,     Denmark     (SOPPA(CCSD), SOPPA prop., AOSOPPA, vibrational g-factors)
  Bernd Schimmelpfennig,    Forschungszentrum Karlsruhe,  Germany     (AMFI module)
  Anna K. Schnack-Petersen, University of Copenhagen,     Denmark     (RPA(D) and HRPA(D) properties in AOSOPPA)
  Kristian Sneskov,         Aarhus University,            Denmark     (Polarizable embedding, QM/MM)
  Arnfinn H. Steindal,      UiT The Arctic U. of Norway,  Norway      (parallel QM/MM, polarizable embedding)
  Casper Steinmann,         Aalborg University,           Denmark     (QFIT, polarizable embedding)
  K. O. Sylvester-Hvid,     University of Copenhagen,     Denmark     (MC-SCRF)
  Peter R. Taylor,          VLSCI/Univ. of Melbourne,     Australia   (Symmetry handling ABACUS, integral transformation)
  Andrew M. Teale,          University of Nottingham,     England     (DFT-AC, DFT-D)
  David P. Tew,             University of Bristol,        England     (CCSD(R12))
  Julien Toulouse,          Sorbonne Univ.,               France      (MC-srDFT)
  Olav Vahtras,             KTH Stockholm,                Sweden      (Triplet response, spin-orbit, ESR, TDDFT, open-shell DFT)
  Lucas Visscher,           Vrije Universiteit Amsterdam, Netherlands (Frozen density embedding)
  David J. Wilson,          La Trobe University,          Australia   (DFT Hessian and DFT magnetizabilities)
  Hans Agren,               KTH Stockholm,                Sweden      (SIRIUS module, RESPONS, MC-SCRF solvation)
 --------------------------------------------------------------------------------

     Date and time (Linux)  : Wed Jan 11 15:39:05 2023
     Host name              : cn019                                   

 * Work memory size             :    64000000 =  488.28 megabytes.

 * Directories for basis set searches:
   1) /gpfs/projects/rjh/adrian/fd_compare/dalton/hf/LiCl/dipole
   2) /gpfs/projects/rjh/adrian/dalton/build/basis


Compilation information
-----------------------

 Who compiled             | ahurtado
 Host                     | sn-mem
 System                   | Linux-3.10.0-1160.24.1.el7.x86_64
 CMake generator          | Unix Makefiles
 Processor                | x86_64
 64-bit integers          | OFF
 MPI                      | ON
 Fortran compiler         | /gpfs/software/intel/oneAPI/2021_4/mpi/2021.4.0/bi
                          | n/mpif90
 Fortran compiler version | GNU Fortran (GCC) 11.2.0
 C compiler               | /gpfs/software/intel/oneAPI/2021_4/mpi/2021.4.0/bi
                          | n/mpicc
 C compiler version       | gcc (GCC) 11.2.0
 C++ compiler             | /gpfs/software/intel/oneAPI/2021_4/mpi/2021.4.0/bi
                          | n/mpicxx
 C++ compiler version     | unknown
 BLAS                     | /gpfs/software/intel/oneAPI/2021_4/mkl/2021.4.0/li
                          | b/intel64/libmkl_gf_lp64.so;/gpfs/software/intel/o
                          | neAPI/2021_4/mkl/2021.4.0/lib/intel64/libmkl_seque
                          | ntial.so;/gpfs/software/intel/oneAPI/2021_4/mkl/20
                          | 21.4.0/lib/intel64/libmkl_core.so;/usr/lib64/libpt
                          | hread.so;/usr/lib64/libm.so
 LAPACK                   | /gpfs/software/intel/oneAPI/2021_4/mkl/2021.4.0/li
                          | b/intel64/libmkl_lapack95_lp64.a;/gpfs/software/in
                          | tel/oneAPI/2021_4/mkl/2021.4.0/lib/intel64/libmkl_
                          | gf_lp64.so
 Static linking           | OFF
 Last Git revision        | 66052b3af5ea7225e31178bf9a8b031913c72190
 Git branch               | (HEAD detached at Dalton2020.0)
 Configuration time       | 2023-01-11 13:33:37.731835

 * MPI parallel run using 20 processes.


   Content of the .dal input file
 ----------------------------------

**DALTON INPUT
.RUN RESPONSE
.DIRECT
**WAVE FUNCTIONS
.HF
**RESPONSE
*LINEAR
.DIPLEN
.FREQUENCIES
9
0.0 0.0136945625 0.027389125 0.0410836875 0.05477825 0.06847281250000001 0.082167375 0.0958619375 0.
**END OF DALTON INPUT


   Content of the .mol file
 ----------------------------

BASIS
d-aug-cc-pCVTZ
blah
blah
Atomtype=2 Atomic
Charge=3 Atoms=1
Li_a 0.000000000000 0.000000000000 0.000000000000
Charge=17 Atoms=1
Cl_a 0.000000000000 0.000000000000 3.818500000000


       *******************************************************************
       *********** Output from DALTON general input processing ***********
       *******************************************************************

 --------------------------------------------------------------------------------
   Overall default print level:    0
   Print level for DALTON.STAT:    1

    Parallel calculation using MPI
    AO-direct calculation (in sections where implemented)
    HERMIT 1- and 2-electron integral sections will be executed
    "Old" integral transformation used (limited to max 255 basis functions)
    Wave function sections will be executed (SIRIUS module)
    Dynamic molecular response properties section will be executed (RESPONSE module)
 --------------------------------------------------------------------------------


   ****************************************************************************
   *************** Output of molecule and basis set information ***************
   ****************************************************************************


    The two title cards from your ".mol" input:
    ------------------------------------------------------------------------
 1: blah                                                                    
 2: blah                                                                    
    ------------------------------------------------------------------------

  Atomic type no.    1
  --------------------
  Nuclear charge:   3.00000
  Number of symmetry independent centers:    1
  Number of basis sets to read;    2
  Basis set file used for this atomic type with Z =   3 :
     "/gpfs/projects/rjh/adrian/dalton/build/basis/aug-cc-pCVTZ"

  Atomic type no.    2
  --------------------
  Nuclear charge:  17.00000
  Number of symmetry independent centers:    1
  Number of basis sets to read;    2
  Basis set file used for this atomic type with Z =  17 :
     "/gpfs/projects/rjh/adrian/dalton/build/basis/aug-cc-pCVTZ"


                      SYMADD: Requested addition of symmetry
                      --------------------------------------

 Symmetry test threshold:  5.00E-06

@   The molecule is centered at center of mass and rotated
@   so principal axes of inertia are along coordinate axes.

 Symmetry class found: C(oo,v)        

 Symmetry Independent Centres             
 ----------------------------
Cl_a  17 :      0.00000000     0.00000000     0.63810184  Isotope  1
Li_a   3 :      0.00000000     0.00000000    -3.18039816  Isotope  1

 The following symmetry elements were found:   X  Y     


                         SYMGRP: Point group information
                         -------------------------------

@    Full point group is: C(oo,v)        
@    Represented as:      C2v

@  * The irrep name for each symmetry:    1: A1     2: B1     3: B2     4: A2 

   * The point group was generated by:

      Reflection in the yz-plane
      Reflection in the xz-plane

   * Group multiplication table

        |  E   C2z  Oxz  Oyz
   -----+--------------------
     E  |  E   C2z  Oxz  Oyz
    C2z | C2z   E   Oyz  Oxz
    Oxz | Oxz  Oyz   E   C2z
    Oyz | Oyz  Oxz  C2z   E 

   * Character table

        |  E   C2z  Oxz  Oyz
   -----+--------------------
    A1  |   1    1    1    1
    B1  |   1   -1    1   -1
    B2  |   1   -1   -1    1
    A2  |   1    1   -1   -1

   * Direct product table

        | A1   B1   B2   A2 
   -----+--------------------
    A1  | A1   B1   B2   A2 
    B1  | B1   A1   A2   B2 
    B2  | B2   A2   A1   B1 
    A2  | A2   B2   B1   A1 


                                 Isotopic Masses
                                 ---------------

                           Li_a        7.016005
                           Cl_a       34.968853

                       Total mass:    41.984858 amu
                       Natural abundance:  70.087 %

 Center-of-mass coordinates (a.u.):    0.000000    0.000000    0.000000
 Center-of-mass coordinates (Angs):    0.000000    0.000000    0.000000


  Atoms and basis sets
  --------------------

  Number of atom types :    2
  Total number of atoms:    2

  Basis set used is "d-aug-cc-pCVTZ" from the basis set library.

  label    atoms   charge   prim   cont     basis
  ----------------------------------------------------------------------
  Li          1    3.0000    88    75      [15s9p5d3f|8s7p5d3f]                               
  Cl          1   17.0000   116    91      [19s13p6d4f|9s8p6d4f]                              
  ----------------------------------------------------------------------
  total:      2   20.0000   204   166
  ----------------------------------------------------------------------
  Spherical harmonic basis used.

  Threshold for neglecting AO integrals:  1.00D-12


  Cartesian Coordinates (a.u.)
  ----------------------------

  Total number of coordinates:    6
  Li_a    :     1  x   0.0000000000    2  y   0.0000000000    3  z  -3.1803981612
  Cl_a    :     4  x   0.0000000000    5  y   0.0000000000    6  z   0.6381018388


  Symmetry Coordinates
  --------------------

  Number of coordinates in each symmetry:     2    2    2    0

  Symmetry  A1  ( 1)

    1   Li_a  z    3
    2   Cl_a  z    6

  Symmetry  B1  ( 2)

    3   Li_a  x    1
    4   Cl_a  x    4

  Symmetry  B2  ( 3)

    5   Li_a  y    2
    6   Cl_a  y    5


   Interatomic separations (in Angstrom):
   --------------------------------------

            Li_a        Cl_a  
            ------      ------
 Li_a  :    0.000000
 Cl_a  :    2.020663    0.000000


  Max    interatomic separation is    2.0207 Angstrom (    3.8185 Bohr)
  between atoms    2 and    1, "Cl_a  " and "Li_a  ".

  Min YX interatomic separation is    2.0207 Angstrom (    3.8185 Bohr)


  Bond distances (Angstrom):
  --------------------------

                  atom 1     atom 2       distance
                  ------     ------       --------
  bond distance:  Cl_a       Li_a         2.020663




 Principal moments of inertia (u*A**2) and principal axes
 --------------------------------------------------------

   IA       0.000000          0.000000    0.000000    1.000000
   IB      23.859781          0.000000    1.000000    0.000000
   IC      23.859781          1.000000    0.000000    0.000000


 Rotational constants
 --------------------

@    The molecule is linear.

               B =        21181.21 MHz     (    0.706529 cm-1)


@  Nuclear repulsion energy :   13.356029854655 Hartree


  Symmetry Orbitals
  -----------------

  Number of orbitals in each symmetry:          68   40   40   18


  Symmetry  A1 ( 1)

    1     Li_a     1s         1
    2     Li_a     1s         2
    3     Li_a     1s         3
    4     Li_a     1s         4
    5     Li_a     1s         5
    6     Li_a     1s         6
    7     Li_a     1s         7
    8     Li_a     1s         8
    9     Li_a     2pz       11
   10     Li_a     2pz       14
   11     Li_a     2pz       17
   12     Li_a     2pz       20
   13     Li_a     2pz       23
   14     Li_a     2pz       26
   15     Li_a     2pz       29
   16     Li_a     3d0       32
   17     Li_a     3d2+      34
   18     Li_a     3d0       37
   19     Li_a     3d2+      39
   20     Li_a     3d0       42
   21     Li_a     3d2+      44
   22     Li_a     3d0       47
   23     Li_a     3d2+      49
   24     Li_a     3d0       52
   25     Li_a     3d2+      54
   26     Li_a     4f0       58
   27     Li_a     4f2+      60
   28     Li_a     4f0       65
   29     Li_a     4f2+      67
   30     Li_a     4f0       72
   31     Li_a     4f2+      74
   32     Cl_a     1s        76
   33     Cl_a     1s        77
   34     Cl_a     1s        78
   35     Cl_a     1s        79
   36     Cl_a     1s        80
   37     Cl_a     1s        81
   38     Cl_a     1s        82
   39     Cl_a     1s        83
   40     Cl_a     1s        84
   41     Cl_a     2pz       87
   42     Cl_a     2pz       90
   43     Cl_a     2pz       93
   44     Cl_a     2pz       96
   45     Cl_a     2pz       99
   46     Cl_a     2pz      102
   47     Cl_a     2pz      105
   48     Cl_a     2pz      108
   49     Cl_a     3d0      111
   50     Cl_a     3d2+     113
   51     Cl_a     3d0      116
   52     Cl_a     3d2+     118
   53     Cl_a     3d0      121
   54     Cl_a     3d2+     123
   55     Cl_a     3d0      126
   56     Cl_a     3d2+     128
   57     Cl_a     3d0      131
   58     Cl_a     3d2+     133
   59     Cl_a     3d0      136
   60     Cl_a     3d2+     138
   61     Cl_a     4f0      142
   62     Cl_a     4f2+     144
   63     Cl_a     4f0      149
   64     Cl_a     4f2+     151
   65     Cl_a     4f0      156
   66     Cl_a     4f2+     158
   67     Cl_a     4f0      163
   68     Cl_a     4f2+     165


  Symmetry  B1 ( 2)

   69     Li_a     2px        9
   70     Li_a     2px       12
   71     Li_a     2px       15
   72     Li_a     2px       18
   73     Li_a     2px       21
   74     Li_a     2px       24
   75     Li_a     2px       27
   76     Li_a     3d1+      33
   77     Li_a     3d1+      38
   78     Li_a     3d1+      43
   79     Li_a     3d1+      48
   80     Li_a     3d1+      53
   81     Li_a     4f1+      59
   82     Li_a     4f3+      61
   83     Li_a     4f1+      66
   84     Li_a     4f3+      68
   85     Li_a     4f1+      73
   86     Li_a     4f3+      75
   87     Cl_a     2px       85
   88     Cl_a     2px       88
   89     Cl_a     2px       91
   90     Cl_a     2px       94
   91     Cl_a     2px       97
   92     Cl_a     2px      100
   93     Cl_a     2px      103
   94     Cl_a     2px      106
   95     Cl_a     3d1+     112
   96     Cl_a     3d1+     117
   97     Cl_a     3d1+     122
   98     Cl_a     3d1+     127
   99     Cl_a     3d1+     132
  100     Cl_a     3d1+     137
  101     Cl_a     4f1+     143
  102     Cl_a     4f3+     145
  103     Cl_a     4f1+     150
  104     Cl_a     4f3+     152
  105     Cl_a     4f1+     157
  106     Cl_a     4f3+     159
  107     Cl_a     4f1+     164
  108     Cl_a     4f3+     166


  Symmetry  B2 ( 3)

  109     Li_a     2py       10
  110     Li_a     2py       13
  111     Li_a     2py       16
  112     Li_a     2py       19
  113     Li_a     2py       22
  114     Li_a     2py       25
  115     Li_a     2py       28
  116     Li_a     3d1-      31
  117     Li_a     3d1-      36
  118     Li_a     3d1-      41
  119     Li_a     3d1-      46
  120     Li_a     3d1-      51
  121     Li_a     4f3-      55
  122     Li_a     4f1-      57
  123     Li_a     4f3-      62
  124     Li_a     4f1-      64
  125     Li_a     4f3-      69
  126     Li_a     4f1-      71
  127     Cl_a     2py       86
  128     Cl_a     2py       89
  129     Cl_a     2py       92
  130     Cl_a     2py       95
  131     Cl_a     2py       98
  132     Cl_a     2py      101
  133     Cl_a     2py      104
  134     Cl_a     2py      107
  135     Cl_a     3d1-     110
  136     Cl_a     3d1-     115
  137     Cl_a     3d1-     120
  138     Cl_a     3d1-     125
  139     Cl_a     3d1-     130
  140     Cl_a     3d1-     135
  141     Cl_a     4f3-     139
  142     Cl_a     4f1-     141
  143     Cl_a     4f3-     146
  144     Cl_a     4f1-     148
  145     Cl_a     4f3-     153
  146     Cl_a     4f1-     155
  147     Cl_a     4f3-     160
  148     Cl_a     4f1-     162


  Symmetry  A2 ( 4)

  149     Li_a     3d2-      30
  150     Li_a     3d2-      35
  151     Li_a     3d2-      40
  152     Li_a     3d2-      45
  153     Li_a     3d2-      50
  154     Li_a     4f2-      56
  155     Li_a     4f2-      63
  156     Li_a     4f2-      70
  157     Cl_a     3d2-     109
  158     Cl_a     3d2-     114
  159     Cl_a     3d2-     119
  160     Cl_a     3d2-     124
  161     Cl_a     3d2-     129
  162     Cl_a     3d2-     134
  163     Cl_a     4f2-     140
  164     Cl_a     4f2-     147
  165     Cl_a     4f2-     154
  166     Cl_a     4f2-     161

  Symmetries of electric field:  B1 (2)  B2 (3)  A1 (1)

  Symmetries of magnetic field:  B2 (3)  B1 (2)  A2 (4)


                     .---------------------------------------.
                     | Starting in Integral Section (HERMIT) |
                     `---------------------------------------'



 ***************************************************************************************
 ****************** Output from **INTEGRALS input processing (HERMIT) ******************
 ***************************************************************************************


 - Using defaults, no **INTEGRALS input found

 Default print level:        1

 Calculation of one-electron Hamiltonian integrals.

 Center of mass  (bohr):      0.000000000000      0.000000000000      0.000000000000
 Operator center (bohr):      0.000000000000      0.000000000000      0.000000000000
 Gauge origin    (bohr):      0.000000000000      0.000000000000      0.000000000000
 Dipole origin   (bohr):      0.000000000000      0.000000000000      0.000000000000


     ************************************************************************
     ************************** Output from HERINT **************************
     ************************************************************************



                      Nuclear contribution to dipole moments
                      --------------------------------------

                 au               Debye          C m (/(10**-30)

      z      1.30653678         3.32088503        11.07728009


  Time used in GABGEN     is       0.25 seconds
  Total CPU  time used in HERMIT:   0.48 seconds
  Total wall time used in HERMIT:   0.49 seconds


                        .----------------------------------.
                        | End of Integral Section (HERMIT) |
                        `----------------------------------'



                   .--------------------------------------------.
                   | Starting in Wave Function Section (SIRIUS) |
                   `--------------------------------------------'


 *** Output from Huckel module :

     Using EWMO model:          T
     Using EHT  model:          F
     Number of Huckel orbitals each symmetry:   10    4    4    1

 EWMO - Energy Weighted Maximum Overlap - is a Huckel type method,
        which normally is better than Extended Huckel Theory.
 Reference: Linderberg and Ohrn, Propagators in Quantum Chemistry (Wiley, 1973)

 Huckel EWMO eigenvalues for symmetry :  1
         -104.883964     -10.609452      -8.072241      -2.486708      -1.123908
           -0.513960      -0.171611      -0.085660      -0.055556      -0.054851

 Huckel EWMO eigenvalues for symmetry :  2
           -8.072216      -0.518935      -0.119286      -0.053719

 Huckel EWMO eigenvalues for symmetry :  3
           -8.072216      -0.518935      -0.119286      -0.053719

 Huckel EWMO eigenvalues for symmetry :  4
           -0.055556

 **********************************************************************
 *SIRIUS* a direct, restricted step, second order MCSCF program       *
 **********************************************************************

 
     Date and time (Linux)  : Wed Jan 11 15:39:06 2023
     Host name              : cn019                                   

 Title lines from ".mol" input file:
     blah                                                                    
     blah                                                                    

 Print level on unit LUPRI =   2 is   0
 Print level on unit LUW4  =   2 is   5

@    Restricted, closed shell Hartree-Fock calculation.

@    Time-dependent Hartree-Fock calculation (random phase approximation).
 Fock matrices are calculated directly and in parallel without use of integrals on disk.

 Initial molecular orbitals are obtained according to
 ".MOSTART EWMO  " input option

     Wave function specification
     ============================
@    Wave function type        --- HF ---
@    Number of closed shell electrons          20
@    Number of electrons in active shells       0
@    Total charge of the molecule               0

@    Spin multiplicity and 2 M_S                1         0
@    Total number of symmetries                 4 (point group: C2v)
@    Reference state symmetry                   1 (irrep name : A1 )

     Orbital specifications
     ======================
@    Abelian symmetry species          All |    1    2    3    4
@                                          |  A1   B1   B2   A2 
                                       --- |  ---  ---  ---  ---
@    Total number of orbitals          166 |   68   40   40   18
@    Number of basis functions         166 |   68   40   40   18

      ** Automatic occupation of RHF orbitals **

      -- Initial occupation of symmetries is determined from extended Huckel guess.           
      -- Initial occupation of symmetries is :
@    Occupied SCF orbitals              10 |    6    2    2    0

     Maximum number of Fock   iterations      0
     Maximum number of DIIS   iterations     60
     Maximum number of QC-SCF iterations     60
     Threshold for SCF convergence     1.00D-05


 ***********************************************
 ***** DIIS acceleration of SCF iterations *****
 ***********************************************

 C1-DIIS algorithm; max error vectors =    8

 Automatic occupation of symmetries with  20 electrons.

 Iter     Total energy    Error norm  Delta(E)    SCF occupation
 -----------------------------------------------------------------------------
   1  Screening settings (-IFTHRS, JTDIIS, DIFDEN, times)   -7    1    T  4.28D-01  4.28D-01
@  1  -467.005614078       9.35D-01  -4.67D+02     6   2   2   0
      Virial theorem: -V/T =      1.997120
@    MULPOP   Li_a    0.76; Cl_a   -0.76; 
   1  Level shift: doubly occupied orbital energies shifted by -2.00D-01
 -----------------------------------------------------------------------------
   2  Screening settings (-IFTHRS, JTDIIS, DIFDEN, times)   -7    2    T  3.88D-01  3.88D-01
@  2  -467.047857628       2.53D-01  -4.22D-02     6   2   2   0
      Virial theorem: -V/T =      2.000964
@    MULPOP   Li_a    0.59; Cl_a   -0.59; 
   2  Level shift: doubly occupied orbital energies shifted by -1.00D-01
 -----------------------------------------------------------------------------
   3  Screening settings (-IFTHRS, JTDIIS, DIFDEN, times)  -11    3    F  3.89D-01  3.89D-01
@  3  -467.051569129       6.09D-02  -3.71D-03     6   2   2   0
      Virial theorem: -V/T =      1.999862
@    MULPOP   Li_a    0.54; Cl_a   -0.54; 
   3  Level shift: doubly occupied orbital energies shifted by -2.50D-02
 -----------------------------------------------------------------------------
   4  Screening settings (-IFTHRS, JTDIIS, DIFDEN, times)  -11    4    T  3.99D-01  4.00D-01
@  4  -467.052259475       1.83D-02  -6.90D-04     6   2   2   0
      Virial theorem: -V/T =      2.000011
@    MULPOP   Li_a    0.52; Cl_a   -0.52; 
   4  Level shift: doubly occupied orbital energies shifted by -1.25D-02
 -----------------------------------------------------------------------------
   5  Screening settings (-IFTHRS, JTDIIS, DIFDEN, times)  -11    5    T  3.96D-01  3.96D-01
@  5  -467.052358719       5.22D-03  -9.92D-05     6   2   2   0
      Virial theorem: -V/T =      2.000006
@    MULPOP   Li_a    0.51; Cl_a   -0.51; 
 -----------------------------------------------------------------------------
   6  Screening settings (-IFTHRS, JTDIIS, DIFDEN, times)  -11    6    T  4.03D-01  4.03D-01
@  6  -467.052367261       1.34D-03  -8.54D-06     6   2   2   0
      Virial theorem: -V/T =      2.000010
@    MULPOP   Li_a    0.51; Cl_a   -0.51; 
 -----------------------------------------------------------------------------
   7  Screening settings (-IFTHRS, JTDIIS, DIFDEN, times)  -11    7    T  3.97D-01  3.97D-01
@  7  -467.052367827       3.05D-04  -5.67D-07     6   2   2   0
      Virial theorem: -V/T =      2.000009
@    MULPOP   Li_a    0.51; Cl_a   -0.51; 
 -----------------------------------------------------------------------------
   8  Screening settings (-IFTHRS, JTDIIS, DIFDEN, times)  -11    8    T  3.85D-01  3.85D-01
@  8  -467.052367842       8.19D-05  -1.45D-08     6   2   2   0
      Virial theorem: -V/T =      2.000011
@    MULPOP   Li_a    0.51; Cl_a   -0.51; 
 -----------------------------------------------------------------------------
   9  Screening settings (-IFTHRS, JTDIIS, DIFDEN, times)  -11    9    T  3.93D-01  3.93D-01
@  9  -467.052367843       1.52D-05  -8.73D-10     6   2   2   0
      Virial theorem: -V/T =      2.000010
@    MULPOP   Li_a    0.51; Cl_a   -0.51; 
 -----------------------------------------------------------------------------
  10  Screening settings (-IFTHRS, JTDIIS, DIFDEN, times)  -11   10    T  3.81D-01  3.81D-01
@ 10  -467.052367843       2.79D-06  -3.96D-11     6   2   2   0

@ *** DIIS converged in  10 iterations !
@     Converged SCF energy, gradient:   -467.052367842679    2.79D-06
    - total time used in SIRFCK :              0.00 seconds


 *** SCF orbital energy analysis ***

 Only the 20 lowest virtual orbital energies printed in each symmetry.

 Number of electrons :   20
 Orbital occupations :    6    2    2    0

 Sym       Hartree-Fock orbital energies

1 A1   -104.72987051   -10.45547797    -7.92166365    -2.47952371    -0.97299688
         -0.40807275    -0.01539766     0.00286463     0.01027994     0.02437607
          0.02991978     0.04734556     0.05135270     0.06080071     0.08047768
          0.09162397     0.13125853     0.13891393     0.14846238     0.15940263
          0.19365922     0.22291050     0.25120500     0.25979036     0.30101272
          0.34388654

2 B1     -7.92138837    -0.38012092     0.00690220     0.02141650     0.05103773
          0.05289323     0.07499592     0.12502993     0.14128605     0.15789680
          0.19098015     0.21673296     0.28387980     0.37287696     0.39983223
          0.46841628     0.48191660     0.60397122     0.63026421     0.77612482
          0.87023754     0.98426727

3 B2     -7.92138837    -0.38012092     0.00690220     0.02141650     0.05103773
          0.05289323     0.07499592     0.12502993     0.14128605     0.15789680
          0.19098015     0.21673296     0.28387980     0.37287696     0.39983223
          0.46841628     0.48191660     0.60397122     0.63026421     0.77612482
          0.87023754     0.98426727

4 A2      0.04734556     0.13125853     0.14846238     0.25979036     0.34388654
          0.38593159     0.58365833     0.74363632     0.84260851     1.02167967
          1.15704702     1.68053510     2.60841892     3.47234250    10.54862759
         14.85778268    37.05847171    46.66696811

    E(LUMO) :    -0.01539766 au (symmetry 1)
  - E(HOMO) :    -0.38012092 au (symmetry 3)
  ------------------------------------------
    gap     :     0.36472327 au

 --- Writing SIRIFC interface file

 CPU and wall time for SCF :       4.014       4.021


                       .-----------------------------------.
                       | --- Final results from SIRIUS --- |
                       `-----------------------------------'


@    Spin multiplicity:           1
@    Spatial symmetry:            1 ( irrep  A1  in C2v )
@    Total charge of molecule:    0

@    Final HF energy:            -467.052367842679                 
@    Nuclear repulsion:            13.356029854655
@    Electronic energy:          -480.408397697334

@    Final gradient norm:           0.000002789954

 
     Date and time (Linux)  : Wed Jan 11 15:39:10 2023
     Host name              : cn019                                   

File label for MO orbitals:  11Jan23   FOCKDIIS

 (Only coefficients > 0.0100 are printed.)

 Molecular orbitals for symmetry species 1  (A1 )
 ------------------------------------------------

    Orbital         1        2        3        4        5        6        7
   1 Li_a:1s    -0.0000   0.0004  -0.0046  -1.0049  -0.0417  -0.0586  -0.0259
   2 Li_a:1s    -0.0001   0.0006  -0.0075  -0.0119   0.0038   0.0544  -0.1510
   3 Li_a:1s     0.0000   0.0002   0.0094   0.0317   0.0727   0.2143  -0.0760
   4 Li_a:1s     0.0001  -0.0002   0.0126   0.0258   0.0385   0.0711  -0.2240
   6 Li_a:1s    -0.0000   0.0001  -0.0018  -0.0053  -0.0106  -0.0209  -0.0151
   7 Li_a:1s    -0.0000   0.0002   0.0009   0.0018   0.0040   0.0043  -0.4012
   8 Li_a:1s     0.0000  -0.0000  -0.0001  -0.0002  -0.0006  -0.0007  -0.0724
  10 Li_a:2pz    0.0000  -0.0003  -0.0001   0.0188   0.0389   0.1329   0.0722
  12 Li_a:2pz    0.0001  -0.0021   0.0051   0.0184   0.0247   0.0964   0.1782
  13 Li_a:2pz    0.0000  -0.0003   0.0025   0.0049   0.0015  -0.0061   0.2917
  14 Li_a:2pz   -0.0000   0.0002  -0.0001   0.0005   0.0033   0.0079   0.1734
  15 Li_a:2pz    0.0000  -0.0000   0.0000  -0.0001  -0.0008  -0.0025   0.0678
  18 Li_a:3d0   -0.0000   0.0002  -0.0019   0.0058   0.0162   0.0391  -0.0009
  20 Li_a:3d0    0.0001  -0.0012   0.0007   0.0039   0.0005   0.0186  -0.0173
  22 Li_a:3d0    0.0000  -0.0007   0.0002   0.0018  -0.0009   0.0027  -0.0118
  24 Li_a:3d0   -0.0000   0.0001   0.0002   0.0005  -0.0003  -0.0027  -0.0349
  26 Li_a:4f0   -0.0000   0.0003  -0.0013   0.0018   0.0067   0.0137   0.0006
  32 Cl_a:1s     1.0000  -0.0001   0.0000   0.0001  -0.0007  -0.0001   0.0000
  33 Cl_a:1s     0.0000   0.9981   0.0013   0.0026  -0.0153  -0.0016   0.0016
  34 Cl_a:1s     0.0002  -0.0043  -0.0003   0.0002   0.9265  -0.0874   0.0406
  36 Cl_a:1s    -0.0003   0.0064   0.0051  -0.0174   0.0387  -0.0792   0.0101
  39 Cl_a:1s    -0.0001   0.0003  -0.0159  -0.0384  -0.0289  -0.1260  -0.0280
  40 Cl_a:1s     0.0000  -0.0011  -0.0090  -0.0169  -0.0360  -0.0494  -0.1814
  41 Cl_a:2pz   -0.0001  -0.0005   0.9978   0.0004   0.0018   0.0088  -0.0000
  42 Cl_a:2pz   -0.0000   0.0007  -0.0082   0.0088  -0.0275  -0.8896  -0.0572
  44 Cl_a:2pz    0.0001  -0.0015   0.0070   0.0170   0.0054   0.0151  -0.0025
  47 Cl_a:2pz   -0.0001   0.0020   0.0073   0.0130   0.0368   0.0245   0.0223
  48 Cl_a:2pz    0.0000  -0.0000   0.0006   0.0003   0.0010   0.0035  -0.0199
  55 Cl_a:3d0    0.0000  -0.0001   0.0013  -0.0035   0.0064   0.0134   0.0019

    Orbital         8        9       10       11       12       13       14
   1 Li_a:1s     0.0429   0.0226   0.1405  -0.0053   0.0000  -0.0834  -0.0104
   2 Li_a:1s     0.1143   0.0165   0.1531  -0.0241   0.0000  -0.1640  -0.0473
   3 Li_a:1s     0.0463   0.3766   0.1141  -1.0562   0.0000  -0.7625   0.0940
   4 Li_a:1s     1.2656   1.6083   6.1251  -3.0619   0.0000  -3.5552  -0.0621
   5 Li_a:1s     0.0047   0.0017   0.0137   0.0001   0.0000  -0.0072  -0.0017
   6 Li_a:1s     0.0211   0.0129   0.0667  -0.0049   0.0000  -0.0477  -0.0033
   7 Li_a:1s     1.1014   1.1672   3.4834  -2.2967   0.0000  -1.4047   2.8245
   8 Li_a:1s    -1.3440  -0.8732  -0.9718   0.5581  -0.0000   0.2806  -0.1425
  10 Li_a:2pz   -0.0226   0.0194   0.0751  -0.0517   0.0000   0.0286   0.0303
  12 Li_a:2pz    0.2344   0.2155   1.5940  -0.4490   0.0000  -0.0373  -0.0618
  13 Li_a:2pz    0.6279   0.2325   3.9789  -0.5055   0.0000   0.3593   2.1342
  14 Li_a:2pz   -0.4688   0.7878  -1.9667  -2.8528  -0.0000  -1.7812   4.5753
  15 Li_a:2pz    0.7139  -1.3969   0.9252   1.2254   0.0000   0.7858  -0.5872
  18 Li_a:3d0    0.0063  -0.0076   0.0111  -0.0116   0.0000   0.0481  -0.0184
  19 Li_a:3d2+  -0.0000   0.0000  -0.0000   0.0000  -0.0387  -0.0000   0.0000
  20 Li_a:3d0    0.0619   0.0185   0.2641   0.0769   0.0000  -0.1167   0.1045
  21 Li_a:3d2+  -0.0000   0.0000   0.0000   0.0000   0.2348  -0.0000   0.0000
  22 Li_a:3d0    0.1936  -0.2063   0.6799   0.1928   0.0000   1.0008  -0.5704
  23 Li_a:3d2+   0.0000  -0.0000  -0.0000  -0.0000  -0.6353   0.0000  -0.0000
  24 Li_a:3d0    0.0635   0.1927   0.3612  -0.0790  -0.0000  -1.1065   3.1888
  25 Li_a:3d2+  -0.0000   0.0000   0.0000   0.0000   1.3518  -0.0000   0.0000
  26 Li_a:4f0    0.0016  -0.0035   0.0034  -0.0016   0.0000   0.0164   0.0150
  28 Li_a:4f0    0.0166  -0.0002   0.0797   0.0545  -0.0000  -0.0272  -0.0982
  29 Li_a:4f2+  -0.0000   0.0000   0.0000   0.0000   0.0531  -0.0000  -0.0000
  30 Li_a:4f0    0.0455  -0.0805   0.1481   0.0424   0.0000   0.3709   0.0842
  31 Li_a:4f2+   0.0000  -0.0000  -0.0000  -0.0000  -0.1634   0.0000  -0.0000
  33 Cl_a:1s     0.0008  -0.0043   0.0042   0.0124   0.0000   0.0117  -0.0029
  34 Cl_a:1s    -0.0111   0.0030   0.0296   0.0729  -0.0000   0.0461   0.0288
  36 Cl_a:1s    -0.0215   0.0569  -0.0564  -0.1666   0.0000  -0.0690   0.0632
  39 Cl_a:1s    -0.6453  -0.0972  -2.8949   0.5401  -0.0000  -0.7322   0.2935
  40 Cl_a:1s    -1.0896  -2.3830  -7.0483   5.1411  -0.0000   5.2280  -5.7563
  41 Cl_a:2pz   -0.0022  -0.0028  -0.0108   0.0055   0.0000   0.0043   0.0023
  42 Cl_a:2pz    0.0144  -0.0179  -0.0791   0.0069   0.0000   0.0430  -0.0031
  43 Cl_a:2pz    0.0031   0.0041   0.0153  -0.0076  -0.0000  -0.0066  -0.0034
  44 Cl_a:2pz    0.0631   0.0086   0.2541  -0.0686   0.0000   0.0722  -0.0206
  47 Cl_a:2pz    0.0876   0.7797   0.8346  -1.7100   0.0000  -1.7132   0.3443
  48 Cl_a:2pz    0.0433   0.4124   0.9099   0.4327   0.0000  -0.9705  -5.1962
  55 Cl_a:3d0   -0.0016   0.0019  -0.0037  -0.0057  -0.0000  -0.0043   0.0147
  57 Cl_a:3d0   -0.0087  -0.0029  -0.0265   0.0726  -0.0000  -0.0478  -0.0571
  58 Cl_a:3d2+   0.0000  -0.0000  -0.0000  -0.0000  -0.0213   0.0000  -0.0000
  59 Cl_a:3d0    0.0422  -0.1921   0.0672   0.3419  -0.0000   0.5131   0.0768
  60 Cl_a:3d2+  -0.0000   0.0000   0.0000   0.0000   0.0467  -0.0000   0.0000
  65 Cl_a:4f0    0.0035  -0.0053   0.0088   0.0029   0.0000   0.0188   0.0029
  67 Cl_a:4f0   -0.0063   0.0174  -0.0189  -0.0393  -0.0000  -0.0392  -0.0044
  68 Cl_a:4f2+  -0.0000   0.0000   0.0000   0.0000   0.0199  -0.0000  -0.0000

    Orbital        15       16
   1 Li_a:1s     0.4385  -0.1520
   2 Li_a:1s     0.8342  -0.3151
   3 Li_a:1s     1.1597   2.6810
   4 Li_a:1s    19.2494   1.2072
   5 Li_a:1s     0.0449  -0.0176
   6 Li_a:1s     0.2118  -0.0661
   7 Li_a:1s     3.8615  -0.1590
   8 Li_a:1s    -0.6554  -0.1039
  10 Li_a:2pz   -0.0033   0.1267
  11 Li_a:2pz   -0.0084  -0.0101
  12 Li_a:2pz    3.7889  -0.0545
  13 Li_a:2pz    8.6187  -4.6598
  14 Li_a:2pz   -1.2394   1.2530
  15 Li_a:2pz    0.3322  -0.7060
  18 Li_a:3d0    0.0493   0.0538
  20 Li_a:3d0    0.6913  -0.5520
  22 Li_a:3d0    1.8231  -0.7465
  24 Li_a:3d0    0.5899  -1.7878
  26 Li_a:4f0    0.0084  -0.0129
  28 Li_a:4f0    0.1898  -0.1683
  30 Li_a:4f0    0.3487  -0.4853
  33 Cl_a:1s     0.0031  -0.0233
  34 Cl_a:1s     0.0224   0.0443
  35 Cl_a:1s     0.0033   0.0248
  36 Cl_a:1s    -0.0479   0.5257
  38 Cl_a:1s    -0.0005  -0.0199
  39 Cl_a:1s    -7.9297   1.8130
  40 Cl_a:1s   -18.1993  -2.3733
  41 Cl_a:2pz   -0.0300  -0.0046
  42 Cl_a:2pz   -0.0430  -0.0472
  43 Cl_a:2pz    0.0434   0.0061
  44 Cl_a:2pz    0.7110  -0.1184
  47 Cl_a:2pz    3.1926   3.9548
  48 Cl_a:2pz    1.3260   2.2625
  55 Cl_a:3d0   -0.0073   0.0189
  57 Cl_a:3d0   -0.1082  -0.1111
  59 Cl_a:3d0   -0.0125  -1.2009
  65 Cl_a:4f0    0.0219  -0.0265
  67 Cl_a:4f0   -0.0245   0.1384

 Molecular orbitals for symmetry species 2  (B1 )
 ------------------------------------------------

    Orbital         1        2        3        4        5        6        7
   2 Li_a:2px    0.0005  -0.0535   0.0077  -0.0228  -0.0102  -0.0475   0.0997
   4 Li_a:2px    0.0078  -0.0120   0.2442   0.5336  -0.8064  -0.7068   1.3606
   5 Li_a:2px    0.0011  -0.0003   0.6227   0.9274  -2.5742  -0.3010   4.4582
   6 Li_a:2px   -0.0004  -0.0013  -0.6085  -3.0671   1.8914   5.0448   1.6138
   7 Li_a:2px    0.0001   0.0001   1.3588   1.6096  -0.8374  -1.0291   0.1428
   9 Li_a:3d1+  -0.0000  -0.0255   0.0016   0.0135  -0.0130  -0.0195  -0.0357
  10 Li_a:3d1+   0.0038   0.0105   0.0082   0.1365   0.0641  -0.0266   0.5309
  11 Li_a:3d1+   0.0020  -0.0090   0.2824   0.5967  -1.2823  -0.7495   0.2056
  12 Li_a:3d1+  -0.0001   0.0015  -0.1013  -0.0037   0.7538   1.8591   3.0228
  13 Li_a:4f1+  -0.0003  -0.0111   0.0014   0.0012  -0.0081   0.0050   0.0106
  15 Li_a:4f1+   0.0018   0.0113   0.0007   0.0516   0.0401  -0.1027   0.0900
  17 Li_a:4f1+   0.0001  -0.0058   0.0906   0.1201  -0.4436  -0.0449   0.2906
  19 Cl_a:2px   -0.9988   0.0052   0.0006   0.0026  -0.0009  -0.0034   0.0050
  20 Cl_a:2px    0.0050  -0.9079  -0.0210   0.0589  -0.0155   0.0712  -0.0793
  22 Cl_a:2px   -0.0063  -0.0574  -0.0092  -0.0483  -0.0197   0.0906  -0.1563
  25 Cl_a:2px   -0.0061  -0.0414  -0.5328  -1.2278   1.9276   1.2666  -2.8052
  26 Cl_a:2px    0.0002   0.0023  -0.1685   0.8908   0.6761  -5.0621  -5.0774
  30 Cl_a:3d1+  -0.0005   0.0119   0.0016  -0.0027  -0.0132   0.0173  -0.0222
  31 Cl_a:3d1+   0.0018   0.0096  -0.0056   0.0458   0.0661  -0.0760   0.1075
  32 Cl_a:3d1+   0.0028   0.0070   0.1466   0.2980  -0.5488  -0.2103   0.7424
  37 Cl_a:4f1+   0.0003  -0.0040   0.0028   0.0072  -0.0079  -0.0028   0.0242
  39 Cl_a:4f1+  -0.0007   0.0032  -0.0114  -0.0323   0.0311   0.0267  -0.0903

    Orbital         8        9       10       11       12
   2 Li_a:2px   -0.1412   0.0000   0.0293   0.0019   0.1899
   3 Li_a:2px    0.0000  -0.0000   0.0019  -0.0113  -0.0002
   4 Li_a:2px    3.3053   0.0000  -0.9971   1.5389   5.2716
   5 Li_a:2px    6.2260   0.0000  -4.1852   1.3069   4.4154
   6 Li_a:2px   -3.0986  -0.0000  -1.8412  -0.2742  -1.8792
   7 Li_a:2px    0.8533   0.0000   0.1301   0.1021   0.3634
   9 Li_a:3d1+   0.0737  -0.0000   0.0003  -0.0480   0.1729
  10 Li_a:3d1+   0.4977   0.0000  -0.4327   1.3851   0.5065
  11 Li_a:3d1+   4.7306   0.0000  -0.5279  -1.0502   5.4335
  12 Li_a:3d1+  -0.5265   0.0000  -2.8233   1.0296  -0.2647
  13 Li_a:4f1+   0.0130   0.0000  -0.1207  -0.0272   0.1028
  14 Li_a:4f3+  -0.0000   0.0965   0.0000  -0.0000   0.0000
  15 Li_a:4f1+   0.1518   0.0000   0.3153   0.5777   0.1947
  16 Li_a:4f3+   0.0000  -0.3877  -0.0000   0.0000  -0.0000
  17 Li_a:4f1+   1.1518  -0.0000  -2.1086  -0.5008   1.9690
  18 Li_a:4f3+  -0.0000   1.2260   0.0000  -0.0000   0.0000
  19 Cl_a:2px    0.0101   0.0000   0.0043   0.0167   0.0095
  20 Cl_a:2px    0.0803   0.0000  -0.0144   0.3175   0.0542
  21 Cl_a:2px   -0.0136  -0.0000  -0.0077  -0.0171  -0.0103
  22 Cl_a:2px   -0.1734  -0.0000   0.0021  -0.3603  -0.3478
  25 Cl_a:2px   -8.4757  -0.0000   3.8815  -2.5785 -10.5942
  26 Cl_a:2px    0.2716  -0.0000   4.2365  -0.2667   0.9527
  29 Cl_a:3d1+   0.0087   0.0000  -0.0075   0.0178  -0.0143
  30 Cl_a:3d1+   0.0165  -0.0000  -0.0148  -0.0677  -0.1105
  31 Cl_a:3d1+   0.1024   0.0000  -0.1488   0.4159   0.5510
  32 Cl_a:3d1+   2.1087   0.0000  -0.2658   0.9513   1.1577
  35 Cl_a:4f1+  -0.0100  -0.0000  -0.0013  -0.0107   0.0035
  37 Cl_a:4f1+   0.0344   0.0000   0.0128   0.0492  -0.0078
  38 Cl_a:4f3+   0.0000   0.0137  -0.0000   0.0000  -0.0000
  39 Cl_a:4f1+  -0.1679  -0.0000   0.0592  -0.1624  -0.1833
  40 Cl_a:4f3+  -0.0000  -0.0239   0.0000  -0.0000   0.0000

 Molecular orbitals for symmetry species 3  (B2 )
 ------------------------------------------------

    Orbital         1        2        3        4        5        6        7
   2 Li_a:2py    0.0005  -0.0535   0.0077  -0.0228  -0.0102  -0.0475   0.0997
   4 Li_a:2py    0.0078  -0.0120   0.2442   0.5336  -0.8064  -0.7068   1.3606
   5 Li_a:2py    0.0011  -0.0003   0.6227   0.9274  -2.5742  -0.3010   4.4582
   6 Li_a:2py   -0.0004  -0.0013  -0.6085  -3.0671   1.8914   5.0448   1.6138
   7 Li_a:2py    0.0001   0.0001   1.3588   1.6096  -0.8374  -1.0291   0.1428
   9 Li_a:3d1-  -0.0000  -0.0255   0.0016   0.0135  -0.0130  -0.0195  -0.0357
  10 Li_a:3d1-   0.0038   0.0105   0.0082   0.1365   0.0641  -0.0266   0.5309
  11 Li_a:3d1-   0.0020  -0.0090   0.2824   0.5967  -1.2823  -0.7495   0.2056
  12 Li_a:3d1-  -0.0001   0.0015  -0.1013  -0.0037   0.7538   1.8591   3.0228
  14 Li_a:4f1-  -0.0003  -0.0111   0.0014   0.0012  -0.0081   0.0050   0.0106
  16 Li_a:4f1-   0.0018   0.0113   0.0007   0.0516   0.0401  -0.1027   0.0900
  18 Li_a:4f1-   0.0001  -0.0058   0.0906   0.1201  -0.4436  -0.0449   0.2906
  19 Cl_a:2py   -0.9988   0.0052   0.0006   0.0026  -0.0009  -0.0034   0.0050
  20 Cl_a:2py    0.0050  -0.9079  -0.0210   0.0589  -0.0155   0.0712  -0.0793
  22 Cl_a:2py   -0.0063  -0.0574  -0.0092  -0.0483  -0.0197   0.0906  -0.1563
  25 Cl_a:2py   -0.0061  -0.0414  -0.5328  -1.2278   1.9276   1.2666  -2.8052
  26 Cl_a:2py    0.0002   0.0023  -0.1685   0.8908   0.6761  -5.0621  -5.0774
  30 Cl_a:3d1-  -0.0005   0.0119   0.0016  -0.0027  -0.0132   0.0173  -0.0222
  31 Cl_a:3d1-   0.0018   0.0096  -0.0056   0.0458   0.0661  -0.0760   0.1075
  32 Cl_a:3d1-   0.0028   0.0070   0.1466   0.2980  -0.5488  -0.2103   0.7424
  38 Cl_a:4f1-   0.0003  -0.0040   0.0028   0.0072  -0.0079  -0.0028   0.0242
  40 Cl_a:4f1-  -0.0007   0.0032  -0.0114  -0.0323   0.0311   0.0267  -0.0903

    Orbital         8        9       10       11       12
   2 Li_a:2py   -0.1412  -0.0000   0.0293   0.0019   0.1899
   3 Li_a:2py    0.0000   0.0000   0.0019  -0.0113  -0.0002
   4 Li_a:2py    3.3053  -0.0000  -0.9971   1.5389   5.2716
   5 Li_a:2py    6.2260  -0.0000  -4.1852   1.3069   4.4154
   6 Li_a:2py   -3.0986  -0.0000  -1.8412  -0.2742  -1.8792
   7 Li_a:2py    0.8533  -0.0000   0.1301   0.1021   0.3634
   9 Li_a:3d1-   0.0737   0.0000   0.0003  -0.0480   0.1729
  10 Li_a:3d1-   0.4977  -0.0000  -0.4327   1.3851   0.5065
  11 Li_a:3d1-   4.7306   0.0000  -0.5279  -1.0502   5.4335
  12 Li_a:3d1-  -0.5265  -0.0000  -2.8233   1.0296  -0.2647
  13 Li_a:4f3-   0.0000   0.0965  -0.0000   0.0000  -0.0000
  14 Li_a:4f1-   0.0130   0.0000  -0.1207  -0.0272   0.1028
  15 Li_a:4f3-  -0.0000  -0.3877   0.0000  -0.0000   0.0000
  16 Li_a:4f1-   0.1518  -0.0000   0.3153   0.5777   0.1947
  17 Li_a:4f3-   0.0000   1.2260  -0.0000   0.0000  -0.0000
  18 Li_a:4f1-   1.1518   0.0000  -2.1086  -0.5008   1.9690
  19 Cl_a:2py    0.0101  -0.0000   0.0043   0.0167   0.0095
  20 Cl_a:2py    0.0803  -0.0000  -0.0144   0.3175   0.0542
  21 Cl_a:2py   -0.0136   0.0000  -0.0077  -0.0171  -0.0103
  22 Cl_a:2py   -0.1734   0.0000   0.0021  -0.3603  -0.3478
  25 Cl_a:2py   -8.4757   0.0000   3.8815  -2.5785 -10.5942
  26 Cl_a:2py    0.2716   0.0000   4.2365  -0.2667   0.9527
  29 Cl_a:3d1-   0.0087  -0.0000  -0.0075   0.0178  -0.0143
  30 Cl_a:3d1-   0.0165   0.0000  -0.0148  -0.0677  -0.1105
  31 Cl_a:3d1-   0.1024  -0.0000  -0.1488   0.4159   0.5510
  32 Cl_a:3d1-   2.1087  -0.0000  -0.2658   0.9513   1.1577
  36 Cl_a:4f1-  -0.0100   0.0000  -0.0013  -0.0107   0.0035
  37 Cl_a:4f3-  -0.0000   0.0137   0.0000  -0.0000   0.0000
  38 Cl_a:4f1-   0.0344  -0.0000   0.0128   0.0492  -0.0078
  39 Cl_a:4f3-   0.0000  -0.0239  -0.0000   0.0000  -0.0000
  40 Cl_a:4f1-  -0.1679   0.0000   0.0592  -0.1624  -0.1833

 Molecular orbitals for symmetry species 4  (A2 )
 ------------------------------------------------

    Orbital         1        2        3        4        5        6        7
   2 Li_a:3d2-  -0.0387   0.0905  -0.0935  -0.0032   0.2500   0.0013  -0.0842
   3 Li_a:3d2-   0.2348  -0.3807   0.4322  -0.0535  -2.1588   0.7513   0.8299
   4 Li_a:3d2-  -0.6353   1.0347  -1.9973  -1.9637   1.8766  -0.0652  -1.1444
   5 Li_a:3d2-   1.3518  -0.8156   0.8653   0.1819  -0.7609   0.1044   0.1295
   6 Li_a:4f2-  -0.0073  -0.0579  -0.0495   0.0462  -0.0380  -0.2110  -0.0928
   7 Li_a:4f2-   0.0531   0.2328   0.3098  -0.2698   0.3168   1.8081   0.9404
   8 Li_a:4f2-  -0.1634  -1.1444  -1.0663  -1.1667  -0.2942  -0.6131  -0.8310
  10 Cl_a:3d2-   0.0003   0.0002  -0.0017   0.0051  -0.0022   0.0086  -0.0241
  11 Cl_a:3d2-   0.0010  -0.0035  -0.0159   0.0063  -0.0166   0.0417  -0.1881
  12 Cl_a:3d2-   0.0068   0.0215   0.0115   0.1414  -0.0013   0.1059   0.0669
  13 Cl_a:3d2-  -0.0213  -0.0896  -0.1669  -0.4011  -0.0796  -0.1962  -1.7828
  14 Cl_a:3d2-   0.0467   0.4620   0.6203   2.9383   0.3344  -0.6174   1.5256
  16 Cl_a:4f2-   0.0014   0.0000   0.0033  -0.0164  -0.0021   0.0238  -0.0112
  17 Cl_a:4f2-  -0.0065  -0.0029  -0.0117   0.0694   0.0232  -0.1209   0.0287
  18 Cl_a:4f2-   0.0199  -0.0046   0.0387  -0.1904  -0.0789   0.3857  -0.0050

    Orbital         8        9       10
   2 Li_a:3d2-   0.4136  -1.7068   0.4838
   3 Li_a:3d2-  -2.0814   1.5159   0.3944
   4 Li_a:3d2-   0.4489  -1.2435  -0.2077
   5 Li_a:3d2-  -0.2480   0.3781   0.0017
   6 Li_a:4f2-  -0.1268   0.3215   1.5847
   7 Li_a:4f2-  -0.9195  -0.6020  -0.6215
   8 Li_a:4f2-  -0.0514   0.0924   0.1507
  10 Cl_a:3d2-   0.0069   0.0039   0.0158
  11 Cl_a:3d2-   0.0449   0.0259   0.0423
  12 Cl_a:3d2-   0.0082   0.0067   0.3785
  13 Cl_a:3d2-   0.5954   0.1872  -1.1566
  14 Cl_a:3d2-   0.9562   0.3218   0.3131
  16 Cl_a:4f2-  -0.1180  -0.0417  -0.0016
  17 Cl_a:4f2-   0.4305   0.1775  -0.0635
  18 Cl_a:4f2-  -1.8670  -0.6479   0.8018

  Total CPU  time used in SIRIUS :   4.06 seconds
  Total wall time used in SIRIUS :   4.07 seconds

 
     Date and time (Linux)  : Wed Jan 11 15:39:10 2023
     Host name              : cn019                                   


                     .---------------------------------------.
                     | End of Wave Function Section (SIRIUS) |
                     `---------------------------------------'



                 .------------------------------------------------.
                 | Starting in Dynamic Property Section (RESPONS) |
                 `------------------------------------------------'


 ----------------------------------------------------------------------------------------
  RESPONSE  -  an MCSCF, MC-srDFT, DFT, SOPPA and SOPPA-srDFT response property program
 ----------------------------------------------------------------------------------------


 -------- OUTPUT FROM RESPONSE INPUT PROCESSING --------




 Linear Response calculation
 ---------------------------

 Print level                                    : IPRLR  =   2
 Maximum number of iterations                   : MAXITL =  60
 Threshold for relative convergence             : THCLR  = 1.000D-03
 Maximum iterations in optimal orbital algorithm: MAXITO =   5

  9 B-frequencies  0.000000D+00  1.369456D-02  2.738913D-02  4.108369D-02  5.477825D-02
  6.847281D-02  8.216738D-02  9.586194D-02  1.095565D-01

    1 second order properties calculated with symmetry no.    1 and labels:

          ZDIPLEN 

    1 second order properties calculated with symmetry no.    2 and labels:

          XDIPLEN 

    1 second order properties calculated with symmetry no.    3 and labels:

          YDIPLEN 


   SCF energy         :     -467.052367842678962
 -- inactive part     :     -480.408397697333953
 -- nuclear repulsion :       13.356029854654969


                     ***************************************
                     *** RHF response calculation (TDHF) ***
                     ***************************************

 ----------------------------------------------------------------
 ----- Linear response calculation
 ----- Symmetry of excitation/property operator(s)    1  ( A1 )
 ----------------------------------------------------------------

 Number of excitations of this symmetry            0
 Number of response properties of this symmetry    1
 Number of C6/C8 properties of this symmetry       0


 Perturbation symmetry.     KSYMOP:           1
 Perturbation spin symmetry.TRPLET:           F
 Orbital variables.         KZWOPT:         524
 Configuration variables.   KZCONF:           0
 Total number of variables. KZVAR :         524


 RSPLR -- linear response calculation for symmetry 1  ( A1 )
 RSPLR -- operator label : ZDIPLEN 
 RSPLR -- operator spin  :   0
 RSPLR -- frequencies    :     0.000000  0.013695  0.027389  0.041084  0.054778
                               0.068473  0.082167  0.095862  0.109557



 ---  SOLVING SETS OF LINEAR EQUATIONS FOR LINEAR RESPONSE PROPERTIES ---

 Operator symmetry = 1  ( A1 ); triplet =   F


 ** RSPCTL MICROITERATION NUMBER    1

       No.  Residual tot.,    conf., and orb.    Bnorm      Frequency 
      ----------------------------------------------------------------
         1    2.28032D+00  0.00D+00  2.28D+00  4.64D+00    0.00000D+00
         2    2.28211D+00  0.00D+00  2.28D+00  4.65D+00    1.36946D-02
         3    2.28750D+00  0.00D+00  2.29D+00  4.69D+00    2.73891D-02
         4    2.29663D+00  0.00D+00  2.30D+00  4.75D+00    4.10837D-02
         5    2.30967D+00  0.00D+00  2.31D+00  4.83D+00    5.47783D-02
         6    2.32694D+00  0.00D+00  2.33D+00  4.94D+00    6.84728D-02
         7    2.34886D+00  0.00D+00  2.35D+00  5.09D+00    8.21674D-02
         8    2.37602D+00  0.00D+00  2.38D+00  5.27D+00    9.58619D-02
         9    2.40922D+00  0.00D+00  2.41D+00  5.49D+00    1.09557D-01

 ** RSPCTL MICROITERATION NUMBER    2

       No.  Residual tot.,    conf., and orb.    Bnorm      Frequency 
      ----------------------------------------------------------------
         1    4.40832D-01  0.00D+00  4.41D-01  4.95D+00    0.00000D+00
         2    4.41720D-01  0.00D+00  4.42D-01  4.97D+00    1.36946D-02
         3    4.44414D-01  0.00D+00  4.44D-01  5.01D+00    2.73891D-02
         4    4.48997D-01  0.00D+00  4.49D-01  5.07D+00    4.10837D-02
         5    4.55618D-01  0.00D+00  4.56D-01  5.17D+00    5.47783D-02
         6    4.64503D-01  0.00D+00  4.65D-01  5.30D+00    6.84728D-02
         7    4.75978D-01  0.00D+00  4.76D-01  5.46D+00    8.21674D-02
         8    4.90502D-01  0.00D+00  4.91D-01  5.67D+00    9.58619D-02
         9    5.08727D-01  0.00D+00  5.09D-01  5.92D+00    1.09557D-01

 ** RSPCTL MICROITERATION NUMBER    3

       No.  Residual tot.,    conf., and orb.    Bnorm      Frequency 
      ----------------------------------------------------------------
         1    8.78653D-02  0.00D+00  8.79D-02  4.97D+00    0.00000D+00
         2    8.81439D-02  0.00D+00  8.81D-02  4.98D+00    1.36946D-02
         3    8.89896D-02  0.00D+00  8.90D-02  5.02D+00    2.73891D-02
         4    9.04338D-02  0.00D+00  9.04D-02  5.09D+00    4.10837D-02
         5    9.25314D-02  0.00D+00  9.25D-02  5.19D+00    5.47783D-02
         6    9.53665D-02  0.00D+00  9.54D-02  5.32D+00    6.84728D-02
         7    9.90604D-02  0.00D+00  9.91D-02  5.48D+00    8.21674D-02
         8    1.03785D-01  0.00D+00  1.04D-01  5.69D+00    9.58619D-02
         9    1.09785D-01  0.00D+00  1.10D-01  5.95D+00    1.09557D-01

 ** RSPCTL MICROITERATION NUMBER    4

       No.  Residual tot.,    conf., and orb.    Bnorm      Frequency 
      ----------------------------------------------------------------
         1    1.05357D-02  0.00D+00  1.05D-02  4.97D+00    0.00000D+00
         2    1.05730D-02  0.00D+00  1.06D-02  4.98D+00    1.36946D-02
         3    1.06862D-02  0.00D+00  1.07D-02  5.02D+00    2.73891D-02
         4    1.08800D-02  0.00D+00  1.09D-02  5.09D+00    4.10837D-02
         5    1.11626D-02  0.00D+00  1.12D-02  5.19D+00    5.47783D-02
         6    1.15463D-02  0.00D+00  1.15D-02  5.32D+00    6.84728D-02
         7    1.20494D-02  0.00D+00  1.20D-02  5.49D+00    8.21674D-02
         8    1.26979D-02  0.00D+00  1.27D-02  5.69D+00    9.58619D-02
         9    1.35296D-02  0.00D+00  1.35D-02  5.96D+00    1.09557D-01

 ** RSPCTL MICROITERATION NUMBER    5

       No.  Residual tot.,    conf., and orb.    Bnorm      Frequency 
      ----------------------------------------------------------------
         1    1.50125D-03  0.00D+00  1.50D-03  4.97D+00    0.00000D+00
         2    1.50829D-03  0.00D+00  1.51D-03  4.98D+00    1.36946D-02
         3    1.52973D-03  0.00D+00  1.53D-03  5.02D+00    2.73891D-02
         4    1.56662D-03  0.00D+00  1.57D-03  5.09D+00    4.10837D-02
         5    1.62080D-03  0.00D+00  1.62D-03  5.19D+00    5.47783D-02
         6    1.69515D-03  0.00D+00  1.70D-03  5.32D+00    6.84728D-02
         7    1.79393D-03  0.00D+00  1.79D-03  5.49D+00    8.21674D-02
         8    1.92340D-03  0.00D+00  1.92D-03  5.69D+00    9.58619D-02
         9    2.09279D-03  0.00D+00  2.09D-03  5.96D+00    1.09557D-01

 *** THE REQUESTED    9 SOLUTION VECTORS CONVERGED

 Convergence of RSP solution vectors, threshold = 1.00D-03
 ---------------------------------------------------------------
 (dimension of paired reduced space:   90)
 RSP solution vector no.    1; norm of residual   3.02D-04
 RSP solution vector no.    2; norm of residual   3.03D-04
 RSP solution vector no.    3; norm of residual   3.05D-04
 RSP solution vector no.    4; norm of residual   3.08D-04
 RSP solution vector no.    5; norm of residual   3.12D-04
 RSP solution vector no.    6; norm of residual   3.19D-04
 RSP solution vector no.    7; norm of residual   3.27D-04
 RSP solution vector no.    8; norm of residual   3.38D-04
 RSP solution vector no.    9; norm of residual   3.51D-04

 *** RSPCTL MICROITERATIONS CONVERGED


           Final output of second order properties from linear response
           ------------------------------------------------------------


@ Spin symmetry of operators: singlet

 Note that minus the linear response function: - << A; B >>(omega) is printed.
 The results are of quadratic accuracy using Sellers formula.

@ FREQUENCY INDEPENDENT SECOND ORDER PROPERTIES

@ -<< ZDIPLEN  ; ZDIPLEN  >> =  2.450732373484E+01

@ FREQUENCY DEPENDENT SECOND ORDER PROPERTIES WITH FREQUENCY :

@    a.u.:  1.3694563D-02
@    cm-1:  3.0056090D+03
@    eV  :  3.7264800D-01
@  kJ/mol:  3.5955068D+01
@    nm  :  3.3271127D+03

@ -<< ZDIPLEN  ; ZDIPLEN  >> =  2.453711443579E+01

@ FREQUENCY DEPENDENT SECOND ORDER PROPERTIES WITH FREQUENCY :

@    a.u.:  2.7389125D-02
@    cm-1:  6.0112181D+03
@    eV  :  7.4529600D-01
@  kJ/mol:  7.1910137D+01
@    nm  :  1.6635564D+03

@ -<< ZDIPLEN  ; ZDIPLEN  >> =  2.462714778558E+01

@ FREQUENCY DEPENDENT SECOND ORDER PROPERTIES WITH FREQUENCY :

@    a.u.:  4.1083688D-02
@    cm-1:  9.0168271D+03
@    eV  :  1.1179440D+00
@  kJ/mol:  1.0786520D+02
@    nm  :  1.1090376D+03

@ -<< ZDIPLEN  ; ZDIPLEN  >> =  2.477945315133E+01

@ FREQUENCY DEPENDENT SECOND ORDER PROPERTIES WITH FREQUENCY :

@    a.u.:  5.4778250D-02
@    cm-1:  1.2022436D+04
@    eV  :  1.4905920D+00
@  kJ/mol:  1.4382027D+02
@    nm  :  8.3177818D+02

@ -<< ZDIPLEN  ; ZDIPLEN  >> =  2.499757159627E+01

@ FREQUENCY DEPENDENT SECOND ORDER PROPERTIES WITH FREQUENCY :

@    a.u.:  6.8472813D-02
@    cm-1:  1.5028045D+04
@    eV  :  1.8632400D+00
@  kJ/mol:  1.7977534D+02
@    nm  :  6.6542254D+02

@ -<< ZDIPLEN  ; ZDIPLEN  >> =  2.528681923752E+01

@ FREQUENCY DEPENDENT SECOND ORDER PROPERTIES WITH FREQUENCY :

@    a.u.:  8.2167375D-02
@    cm-1:  1.8033654D+04
@    eV  :  2.2358880D+00
@  kJ/mol:  2.1573041D+02
@    nm  :  5.5451878D+02

@ -<< ZDIPLEN  ; ZDIPLEN  >> =  2.565471330531E+01

@ FREQUENCY DEPENDENT SECOND ORDER PROPERTIES WITH FREQUENCY :

@    a.u.:  9.5861937D-02
@    cm-1:  2.1039263D+04
@    eV  :  2.6085360D+00
@  kJ/mol:  2.5168548D+02
@    nm  :  4.7530182D+02

@ -<< ZDIPLEN  ; ZDIPLEN  >> =  2.611163769415E+01

@ FREQUENCY DEPENDENT SECOND ORDER PROPERTIES WITH FREQUENCY :

@    a.u.:  1.0955650D-01
@    cm-1:  2.4044872D+04
@    eV  :  2.9811840D+00
@  kJ/mol:  2.8764055D+02
@    nm  :  4.1588909D+02

@ -<< ZDIPLEN  ; ZDIPLEN  >> =  2.667188456786E+01


 Time used in linear response calculation is      5.23 CPU seconds for symmetry 1
 ----------------------------------------------------------------
 ----- Linear response calculation
 ----- Symmetry of excitation/property operator(s)    2  ( B1 )
 ----------------------------------------------------------------

 Number of excitations of this symmetry            0
 Number of response properties of this symmetry    1
 Number of C6/C8 properties of this symmetry       0


 Perturbation symmetry.     KSYMOP:           2
 Perturbation spin symmetry.TRPLET:           F
 Orbital variables.         KZWOPT:         388
 Configuration variables.   KZCONF:           0
 Total number of variables. KZVAR :         388


 RSPLR -- linear response calculation for symmetry 2  ( B1 )
 RSPLR -- operator label : XDIPLEN 
 RSPLR -- operator spin  :   0
 RSPLR -- frequencies    :     0.000000  0.013695  0.027389  0.041084  0.054778
                               0.068473  0.082167  0.095862  0.109557



 ---  SOLVING SETS OF LINEAR EQUATIONS FOR LINEAR RESPONSE PROPERTIES ---

 Operator symmetry = 2  ( B1 ); triplet =   F


 ** RSPCTL MICROITERATION NUMBER    1

       No.  Residual tot.,    conf., and orb.    Bnorm      Frequency 
      ----------------------------------------------------------------
         1    1.62146D+00  0.00D+00  1.62D+00  4.82D+00    0.00000D+00
         2    1.62246D+00  0.00D+00  1.62D+00  4.83D+00    1.36946D-02
         3    1.62549D+00  0.00D+00  1.63D+00  4.87D+00    2.73891D-02
         4    1.63062D+00  0.00D+00  1.63D+00  4.94D+00    4.10837D-02
         5    1.63796D+00  0.00D+00  1.64D+00  5.04D+00    5.47783D-02
         6    1.64770D+00  0.00D+00  1.65D+00  5.17D+00    6.84728D-02
         7    1.66011D+00  0.00D+00  1.66D+00  5.34D+00    8.21674D-02
         8    1.67559D+00  0.00D+00  1.68D+00  5.56D+00    9.58619D-02
         9    1.69470D+00  0.00D+00  1.69D+00  5.84D+00    1.09557D-01

 ** RSPCTL MICROITERATION NUMBER    2

       No.  Residual tot.,    conf., and orb.    Bnorm      Frequency 
      ----------------------------------------------------------------
         1    2.62332D-01  0.00D+00  2.62D-01  5.05D+00    0.00000D+00
         2    2.62578D-01  0.00D+00  2.63D-01  5.07D+00    1.36946D-02
         3    2.63324D-01  0.00D+00  2.63D-01  5.11D+00    2.73891D-02
         4    2.64593D-01  0.00D+00  2.65D-01  5.19D+00    4.10837D-02
         5    2.66432D-01  0.00D+00  2.66D-01  5.30D+00    5.47783D-02
         6    2.68914D-01  0.00D+00  2.69D-01  5.45D+00    6.84728D-02
         7    2.72153D-01  0.00D+00  2.72D-01  5.65D+00    8.21674D-02
         8    2.76326D-01  0.00D+00  2.76D-01  5.91D+00    9.58619D-02
         9    2.81720D-01  0.00D+00  2.82D-01  6.23D+00    1.09557D-01

 ** RSPCTL MICROITERATION NUMBER    3

       No.  Residual tot.,    conf., and orb.    Bnorm      Frequency 
      ----------------------------------------------------------------
         1    1.93982D-02  0.00D+00  1.94D-02  5.06D+00    0.00000D+00
         2    1.94674D-02  0.00D+00  1.95D-02  5.07D+00    1.36946D-02
         3    1.96781D-02  0.00D+00  1.97D-02  5.12D+00    2.73891D-02
         4    2.00399D-02  0.00D+00  2.00D-02  5.20D+00    4.10837D-02
         5    2.05703D-02  0.00D+00  2.06D-02  5.31D+00    5.47783D-02
         6    2.12967D-02  0.00D+00  2.13D-02  5.46D+00    6.84728D-02
         7    2.22611D-02  0.00D+00  2.23D-02  5.66D+00    8.21674D-02
         8    2.35268D-02  0.00D+00  2.35D-02  5.92D+00    9.58619D-02
         9    2.51915D-02  0.00D+00  2.52D-02  6.25D+00    1.09557D-01

 ** RSPCTL MICROITERATION NUMBER    4

       No.  Residual tot.,    conf., and orb.    Bnorm      Frequency 
      ----------------------------------------------------------------
         1    3.63761D-03  0.00D+00  3.64D-03  5.06D+00    0.00000D+00
         2    3.64826D-03  0.00D+00  3.65D-03  5.07D+00    1.36946D-02
         3    3.68049D-03  0.00D+00  3.68D-03  5.12D+00    2.73891D-02
         4    3.73524D-03  0.00D+00  3.74D-03  5.20D+00    4.10837D-02
         5    3.81427D-03  0.00D+00  3.81D-03  5.31D+00    5.47783D-02
         6    3.92062D-03  0.00D+00  3.92D-03  5.46D+00    6.84728D-02
         7    4.05940D-03  0.00D+00  4.06D-03  5.66D+00    8.21674D-02
         8    4.23936D-03  0.00D+00  4.24D-03  5.92D+00    9.58619D-02
         9    4.47581D-03  0.00D+00  4.48D-03  6.25D+00    1.09557D-01

 *** THE REQUESTED    9 SOLUTION VECTORS CONVERGED

 Convergence of RSP solution vectors, threshold = 1.00D-03
 ---------------------------------------------------------------
 (dimension of paired reduced space:   72)
 RSP solution vector no.    1; norm of residual   7.19D-04
 RSP solution vector no.    2; norm of residual   7.19D-04
 RSP solution vector no.    3; norm of residual   7.19D-04
 RSP solution vector no.    4; norm of residual   7.19D-04
 RSP solution vector no.    5; norm of residual   7.19D-04
 RSP solution vector no.    6; norm of residual   7.18D-04
 RSP solution vector no.    7; norm of residual   7.17D-04
 RSP solution vector no.    8; norm of residual   7.17D-04
 RSP solution vector no.    9; norm of residual   7.17D-04

 *** RSPCTL MICROITERATIONS CONVERGED


           Final output of second order properties from linear response
           ------------------------------------------------------------


@ Spin symmetry of operators: singlet

 Note that minus the linear response function: - << A; B >>(omega) is printed.
 The results are of quadratic accuracy using Sellers formula.

@ FREQUENCY INDEPENDENT SECOND ORDER PROPERTIES

@ -<< XDIPLEN  ; XDIPLEN  >> =  2.377106029813E+01

@ FREQUENCY DEPENDENT SECOND ORDER PROPERTIES WITH FREQUENCY :

@    a.u.:  1.3694563D-02
@    cm-1:  3.0056090D+03
@    eV  :  3.7264800D-01
@  kJ/mol:  3.5955068D+01
@    nm  :  3.3271127D+03

@ -<< XDIPLEN  ; XDIPLEN  >> =  2.380267596932E+01

@ FREQUENCY DEPENDENT SECOND ORDER PROPERTIES WITH FREQUENCY :

@    a.u.:  2.7389125D-02
@    cm-1:  6.0112181D+03
@    eV  :  7.4529600D-01
@  kJ/mol:  7.1910137D+01
@    nm  :  1.6635564D+03

@ -<< XDIPLEN  ; XDIPLEN  >> =  2.389836405843E+01

@ FREQUENCY DEPENDENT SECOND ORDER PROPERTIES WITH FREQUENCY :

@    a.u.:  4.1083688D-02
@    cm-1:  9.0168271D+03
@    eV  :  1.1179440D+00
@  kJ/mol:  1.0786520D+02
@    nm  :  1.1090376D+03

@ -<< XDIPLEN  ; XDIPLEN  >> =  2.406072271823E+01

@ FREQUENCY DEPENDENT SECOND ORDER PROPERTIES WITH FREQUENCY :

@    a.u.:  5.4778250D-02
@    cm-1:  1.2022436D+04
@    eV  :  1.4905920D+00
@  kJ/mol:  1.4382027D+02
@    nm  :  8.3177818D+02

@ -<< XDIPLEN  ; XDIPLEN  >> =  2.429434679128E+01

@ FREQUENCY DEPENDENT SECOND ORDER PROPERTIES WITH FREQUENCY :

@    a.u.:  6.8472813D-02
@    cm-1:  1.5028045D+04
@    eV  :  1.8632400D+00
@  kJ/mol:  1.7977534D+02
@    nm  :  6.6542254D+02

@ -<< XDIPLEN  ; XDIPLEN  >> =  2.460628191180E+01

@ FREQUENCY DEPENDENT SECOND ORDER PROPERTIES WITH FREQUENCY :

@    a.u.:  8.2167375D-02
@    cm-1:  1.8033654D+04
@    eV  :  2.2358880D+00
@  kJ/mol:  2.1573041D+02
@    nm  :  5.5451878D+02

@ -<< XDIPLEN  ; XDIPLEN  >> =  2.500679680235E+01

@ FREQUENCY DEPENDENT SECOND ORDER PROPERTIES WITH FREQUENCY :

@    a.u.:  9.5861937D-02
@    cm-1:  2.1039263D+04
@    eV  :  2.6085360D+00
@  kJ/mol:  2.5168548D+02
@    nm  :  4.7530182D+02

@ -<< XDIPLEN  ; XDIPLEN  >> =  2.551067566300E+01

@ FREQUENCY DEPENDENT SECOND ORDER PROPERTIES WITH FREQUENCY :

@    a.u.:  1.0955650D-01
@    cm-1:  2.4044872D+04
@    eV  :  2.9811840D+00
@  kJ/mol:  2.8764055D+02
@    nm  :  4.1588909D+02

@ -<< XDIPLEN  ; XDIPLEN  >> =  2.613943181607E+01


 Time used in linear response calculation is      4.24 CPU seconds for symmetry 2
 ----------------------------------------------------------------
 ----- Linear response calculation
 ----- Symmetry of excitation/property operator(s)    3  ( B2 )
 ----------------------------------------------------------------

 Number of excitations of this symmetry            0
 Number of response properties of this symmetry    1
 Number of C6/C8 properties of this symmetry       0


 Perturbation symmetry.     KSYMOP:           3
 Perturbation spin symmetry.TRPLET:           F
 Orbital variables.         KZWOPT:         388
 Configuration variables.   KZCONF:           0
 Total number of variables. KZVAR :         388


 RSPLR -- linear response calculation for symmetry 3  ( B2 )
 RSPLR -- operator label : YDIPLEN 
 RSPLR -- operator spin  :   0
 RSPLR -- frequencies    :     0.000000  0.013695  0.027389  0.041084  0.054778
                               0.068473  0.082167  0.095862  0.109557



 ---  SOLVING SETS OF LINEAR EQUATIONS FOR LINEAR RESPONSE PROPERTIES ---

 Operator symmetry = 3  ( B2 ); triplet =   F


 ** RSPCTL MICROITERATION NUMBER    1

       No.  Residual tot.,    conf., and orb.    Bnorm      Frequency 
      ----------------------------------------------------------------
         1    1.63228D+00  0.00D+00  1.63D+00  4.82D+00    0.00000D+00
         2    1.63335D+00  0.00D+00  1.63D+00  4.83D+00    1.36946D-02
         3    1.63659D+00  0.00D+00  1.64D+00  4.87D+00    2.73891D-02
         4    1.64208D+00  0.00D+00  1.64D+00  4.94D+00    4.10837D-02
         5    1.64995D+00  0.00D+00  1.65D+00  5.04D+00    5.47783D-02
         6    1.66041D+00  0.00D+00  1.66D+00  5.17D+00    6.84728D-02
         7    1.67377D+00  0.00D+00  1.67D+00  5.34D+00    8.21674D-02
         8    1.69049D+00  0.00D+00  1.69D+00  5.56D+00    9.58619D-02
         9    1.71122D+00  0.00D+00  1.71D+00  5.84D+00    1.09557D-01

 ** RSPCTL MICROITERATION NUMBER    2

       No.  Residual tot.,    conf., and orb.    Bnorm      Frequency 
      ----------------------------------------------------------------
         1    2.80311D-01  0.00D+00  2.80D-01  5.05D+00    0.00000D+00
         2    2.80610D-01  0.00D+00  2.81D-01  5.07D+00    1.36946D-02
         3    2.81519D-01  0.00D+00  2.82D-01  5.11D+00    2.73891D-02
         4    2.83065D-01  0.00D+00  2.83D-01  5.19D+00    4.10837D-02
         5    2.85305D-01  0.00D+00  2.85D-01  5.30D+00    5.47783D-02
         6    2.88322D-01  0.00D+00  2.88D-01  5.45D+00    6.84728D-02
         7    2.92249D-01  0.00D+00  2.92D-01  5.65D+00    8.21674D-02
         8    2.97289D-01  0.00D+00  2.97D-01  5.91D+00    9.58619D-02
         9    3.03760D-01  0.00D+00  3.04D-01  6.24D+00    1.09557D-01

 ** RSPCTL MICROITERATION NUMBER    3

       No.  Residual tot.,    conf., and orb.    Bnorm      Frequency 
      ----------------------------------------------------------------
         1    1.66695D-02  0.00D+00  1.67D-02  5.06D+00    0.00000D+00
         2    1.67373D-02  0.00D+00  1.67D-02  5.07D+00    1.36946D-02
         3    1.69436D-02  0.00D+00  1.69D-02  5.12D+00    2.73891D-02
         4    1.72972D-02  0.00D+00  1.73D-02  5.20D+00    4.10837D-02
         5    1.78141D-02  0.00D+00  1.78D-02  5.31D+00    5.47783D-02
         6    1.85192D-02  0.00D+00  1.85D-02  5.46D+00    6.84728D-02
         7    1.94498D-02  0.00D+00  1.94D-02  5.66D+00    8.21674D-02
         8    2.06612D-02  0.00D+00  2.07D-02  5.92D+00    9.58619D-02
         9    2.22374D-02  0.00D+00  2.22D-02  6.25D+00    1.09557D-01

 ** RSPCTL MICROITERATION NUMBER    4

       No.  Residual tot.,    conf., and orb.    Bnorm      Frequency 
      ----------------------------------------------------------------
         1    1.51957D-03  0.00D+00  1.52D-03  5.06D+00    0.00000D+00
         2    1.52502D-03  0.00D+00  1.53D-03  5.07D+00    1.36946D-02
         3    1.54208D-03  0.00D+00  1.54D-03  5.12D+00    2.73891D-02
         4    1.57304D-03  0.00D+00  1.57D-03  5.20D+00    4.10837D-02
         5    1.62230D-03  0.00D+00  1.62D-03  5.31D+00    5.47783D-02
         6    1.69738D-03  0.00D+00  1.70D-03  5.46D+00    6.84728D-02
         7    1.81050D-03  0.00D+00  1.81D-03  5.66D+00    8.21674D-02
         8    1.98119D-03  0.00D+00  1.98D-03  5.92D+00    9.58619D-02
         9    2.24015D-03  0.00D+00  2.24D-03  6.25D+00    1.09557D-01

 *** THE REQUESTED    9 SOLUTION VECTORS CONVERGED

 Convergence of RSP solution vectors, threshold = 1.00D-03
 ---------------------------------------------------------------
 (dimension of paired reduced space:   72)
 RSP solution vector no.    1; norm of residual   3.00D-04
 RSP solution vector no.    2; norm of residual   3.01D-04
 RSP solution vector no.    3; norm of residual   3.01D-04
 RSP solution vector no.    4; norm of residual   3.03D-04
 RSP solution vector no.    5; norm of residual   3.06D-04
 RSP solution vector no.    6; norm of residual   3.11D-04
 RSP solution vector no.    7; norm of residual   3.20D-04
 RSP solution vector no.    8; norm of residual   3.35D-04
 RSP solution vector no.    9; norm of residual   3.59D-04

 *** RSPCTL MICROITERATIONS CONVERGED


           Final output of second order properties from linear response
           ------------------------------------------------------------


@ Spin symmetry of operators: singlet

 Note that minus the linear response function: - << A; B >>(omega) is printed.
 The results are of quadratic accuracy using Sellers formula.

@ FREQUENCY INDEPENDENT SECOND ORDER PROPERTIES

@ -<< YDIPLEN  ; YDIPLEN  >> =  2.377106130923E+01

@ FREQUENCY DEPENDENT SECOND ORDER PROPERTIES WITH FREQUENCY :

@    a.u.:  1.3694563D-02
@    cm-1:  3.0056090D+03
@    eV  :  3.7264800D-01
@  kJ/mol:  3.5955068D+01
@    nm  :  3.3271127D+03

@ -<< YDIPLEN  ; YDIPLEN  >> =  2.380267698906E+01

@ FREQUENCY DEPENDENT SECOND ORDER PROPERTIES WITH FREQUENCY :

@    a.u.:  2.7389125D-02
@    cm-1:  6.0112181D+03
@    eV  :  7.4529600D-01
@  kJ/mol:  7.1910137D+01
@    nm  :  1.6635564D+03

@ -<< YDIPLEN  ; YDIPLEN  >> =  2.389836510468E+01

@ FREQUENCY DEPENDENT SECOND ORDER PROPERTIES WITH FREQUENCY :

@    a.u.:  4.1083688D-02
@    cm-1:  9.0168271D+03
@    eV  :  1.1179440D+00
@  kJ/mol:  1.0786520D+02
@    nm  :  1.1090376D+03

@ -<< YDIPLEN  ; YDIPLEN  >> =  2.406072381061E+01

@ FREQUENCY DEPENDENT SECOND ORDER PROPERTIES WITH FREQUENCY :

@    a.u.:  5.4778250D-02
@    cm-1:  1.2022436D+04
@    eV  :  1.4905920D+00
@  kJ/mol:  1.4382027D+02
@    nm  :  8.3177818D+02

@ -<< YDIPLEN  ; YDIPLEN  >> =  2.429434795268E+01

@ FREQUENCY DEPENDENT SECOND ORDER PROPERTIES WITH FREQUENCY :

@    a.u.:  6.8472813D-02
@    cm-1:  1.5028045D+04
@    eV  :  1.8632400D+00
@  kJ/mol:  1.7977534D+02
@    nm  :  6.6542254D+02

@ -<< YDIPLEN  ; YDIPLEN  >> =  2.460628317040E+01

@ FREQUENCY DEPENDENT SECOND ORDER PROPERTIES WITH FREQUENCY :

@    a.u.:  8.2167375D-02
@    cm-1:  1.8033654D+04
@    eV  :  2.2358880D+00
@  kJ/mol:  2.1573041D+02
@    nm  :  5.5451878D+02

@ -<< YDIPLEN  ; YDIPLEN  >> =  2.500679819473E+01

@ FREQUENCY DEPENDENT SECOND ORDER PROPERTIES WITH FREQUENCY :

@    a.u.:  9.5861937D-02
@    cm-1:  2.1039263D+04
@    eV  :  2.6085360D+00
@  kJ/mol:  2.5168548D+02
@    nm  :  4.7530182D+02

@ -<< YDIPLEN  ; YDIPLEN  >> =  2.551067723912E+01

@ FREQUENCY DEPENDENT SECOND ORDER PROPERTIES WITH FREQUENCY :

@    a.u.:  1.0955650D-01
@    cm-1:  2.4044872D+04
@    eV  :  2.9811840D+00
@  kJ/mol:  2.8764055D+02
@    nm  :  4.1588909D+02

@ -<< YDIPLEN  ; YDIPLEN  >> =  2.613943364811E+01


 Time used in linear response calculation is      4.25 CPU seconds for symmetry 3

  Total CPU  time used in RESPONSE:  13.73 seconds
  Total wall time used in RESPONSE:  13.76 seconds


                   .-------------------------------------------.
                   | End of Dynamic Property Section (RESPONS) |
                   `-------------------------------------------'

  Total CPU  time used in DALTON:  18.30 seconds
  Total wall time used in DALTON:  18.36 seconds

 
     Date and time (Linux)  : Wed Jan 11 15:39:24 2023
     Host name              : cn019                                   
