

     ************************************************************************
     *************** Dalton - An Electronic Structure Program ***************
     ************************************************************************

    This is output from DALTON release Dalton2020.0 (2020)
         ( Web site: http://daltonprogram.org )

   ----------------------------------------------------------------------------

    NOTE:
     
    Dalton is an experimental code for the evaluation of molecular
    properties using (MC)SCF, DFT, CI, and CC wave functions.
    The authors accept no responsibility for the performance of
    the code or for the correctness of the results.
     
    The code (in whole or part) is provided under a licence and
    is not to be reproduced for further distribution without
    the written permission of the authors or their representatives.
     
    See the home page "http://daltonprogram.org" for further information.
     
    If results obtained with this code are published,
    the appropriate citations would be both of:
     
       K. Aidas, C. Angeli, K. L. Bak, V. Bakken, R. Bast,
       L. Boman, O. Christiansen, R. Cimiraglia, S. Coriani,
       P. Dahle, E. K. Dalskov, U. Ekstroem,
       T. Enevoldsen, J. J. Eriksen, P. Ettenhuber, B. Fernandez,
       L. Ferrighi, H. Fliegl, L. Frediani, K. Hald, A. Halkier,
       C. Haettig, H. Heiberg, T. Helgaker, A. C. Hennum,
       H. Hettema, E. Hjertenaes, S. Hoest, I.-M. Hoeyvik,
       M. F. Iozzi, B. Jansik, H. J. Aa. Jensen, D. Jonsson,
       P. Joergensen, J. Kauczor, S. Kirpekar,
       T. Kjaergaard, W. Klopper, S. Knecht, R. Kobayashi, H. Koch,
       J. Kongsted, A. Krapp, K. Kristensen, A. Ligabue,
       O. B. Lutnaes, J. I. Melo, K. V. Mikkelsen, R. H. Myhre,
       C. Neiss, C. B. Nielsen, P. Norman, J. Olsen,
       J. M. H. Olsen, A. Osted, M. J. Packer, F. Pawlowski,
       T. B. Pedersen, P. F. Provasi, S. Reine, Z. Rinkevicius,
       T. A. Ruden, K. Ruud, V. Rybkin, P. Salek, C. C. M. Samson,
       A. Sanchez de Meras, T. Saue, S. P. A. Sauer,
       B. Schimmelpfennig, K. Sneskov, A. H. Steindal,
       K. O. Sylvester-Hvid, P. R. Taylor, A. M. Teale,
       E. I. Tellgren, D. P. Tew, A. J. Thorvaldsen, L. Thoegersen,
       O. Vahtras, M. A. Watson, D. J. D. Wilson, M. Ziolkowski
       and H. Agren,
       "The Dalton quantum chemistry program system",
       WIREs Comput. Mol. Sci. 2014, 4:269–284 (doi: 10.1002/wcms.1172)
     
    and
     
       Dalton, a molecular electronic structure program,
       Release Dalton2020.0 (2020), see http://daltonprogram.org
   ----------------------------------------------------------------------------

    Authors in alphabetical order (Major contribution(s) in parenthesis):

  Kestutis Aidas,           Vilnius University,           Lithuania   (QM/MM)
  Celestino Angeli,         University of Ferrara,        Italy       (NEVPT2)
  Keld L. Bak,              UNI-C,                        Denmark     (AOSOPPA, non-adiabatic coupling, magnetic properties)
  Vebjoern Bakken,          University of Oslo,           Norway      (DALTON; geometry optimizer, symmetry detection)
  Radovan Bast,             UiT The Arctic U. of Norway,  Norway      (DALTON installation and execution frameworks)
  Pablo Baudin,             University of Valencia,       Spain       (Cholesky excitation energies)
  Linus Boman,              NTNU,                         Norway      (Cholesky decomposition and subsystems)
  Bruno N. Cabral Tenorio,  Technical Univ. of Denmark,   Denmark     (Lanczos-based CC methods)
  Ove Christiansen,         Aarhus University,            Denmark     (CC module)
  Renzo Cimiraglia,         University of Ferrara,        Italy       (NEVPT2)
  Sonia Coriani,            Technical Univ. of Denmark,   Denmark     (CC and RESPONS modules)
  Janusz Cukras,            University of Warsaw,         Poland      (MChD in RESPONS)
  Paal Dahle,               University of Oslo,           Norway      (Parallelization)
  Erik K. Dalskov,          UNI-C,                        Denmark     (SOPPA)
  Thomas Enevoldsen,        Univ. of Southern Denmark,    Denmark     (SOPPA)
  Janus J. Eriksen,         Aarhus University,            Denmark     (Polarizable embedding, TDA)
  Rasmus Faber,             Technical Univ. of Denmark,   Denmark     (Vib.avg. NMR w. SOPPA, parallel AO-SOPPA, CVS-CC and EOMCC)
  Tobias Fahleson,          KTH Stockholm,                Sweden      (Damped cubic response)
  Berta Fernandez,          U. of Santiago de Compostela, Spain       (Doublet spin, ESR in RESPONS)
  Lara Ferrighi,            Aarhus University,            Denmark     (PCM Cubic response)
  Heike Fliegl,             University of Oslo,           Norway      (CCSD(R12))
  Luca Frediani,            UiT The Arctic U. of Norway,  Norway      (PCM)
  Emmanuel Fromager,        Univ. Strasbourg,             France      (MC-srDFT)
  Bin Gao,                  UiT The Arctic U. of Norway,  Norway      (Gen1Int library)
  Andre S. P. Gomes,        CNRS/Universite de Lille,     France      (Frozen density embedding)
  Christof Haettig,         Ruhr-University Bochum,       Germany     (CC module)
  Kasper Hald,              Aarhus University,            Denmark     (CC module)
  Asger Halkier,            Aarhus University,            Denmark     (CC module)
  Frederik Beyer Hansen,    University of Copenhagen,     Denmark     (Parallel AO-SOPPA)
  Erik D. Hedegaard,        Univ. of Southern Denmark,    Denmark     (Polarizable embedding, QM/MM, and MC-srDFT)
  Hanne Heiberg,            University of Oslo,           Norway      (Geometry analysis, selected one-electron integrals)
  Trygve Helgaker,          University of Oslo,           Norway      (DALTON; ABACUS, ERI, DFT modules, London, and much more)
  Alf Christian Hennum,     University of Oslo,           Norway      (Parity violation)
  Hinne Hettema,            University of Auckland,       New Zealand (Quadratic response in RESPONS; SIRIUS supersymmetry)
  Eirik Hjertenaes,         NTNU,                         Norway      (Cholesky decomposition)
  Pi A. B. Haase,           University of Copenhagen,     Denmark     (Triplet AO-SOPPA)
  Maria Francesca Iozzi,    University of Oslo,           Norway      (RPA)
  Christoph Jacob           TU Braunschweig               Germany     (Frozen density embedding)
  Brano Jansik              Technical Univ. of Ostrava    Czech Rep.  (DFT cubic response)
  Hans Joergen Aa. Jensen,  Univ. of Southern Denmark,    Denmark     (DALTON; SIRIUS, RESPONS, ABACUS, MC-srDFT, and much more)
  Dan Jonsson,              UiT The Arctic U. of Norway,  Norway      (Cubic response in RESPONS module)
  Poul Joergensen,          Aarhus University,            Denmark     (RESPONS, ABACUS, and CC modules)
  Maciej Kaminski,          University of Warsaw,         Poland      (CPPh in RESPONS)
  Joanna Kauczor,           Linkoeping University,        Sweden      (Complex polarization propagator (CPP) module)
  Sheela Kirpekar,          Univ. of Southern Denmark,    Denmark     (Mass-velocity & Darwin integrals)
  Erik Kjellgren,           Univ. of Southern Denmark,    Denmark     (MC-srDFT)
  Wim Klopper,              KIT Karlsruhe,                Germany     (R12 code in CC, SIRIUS, and ABACUS modules)
  Stefan Knecht,            ETH Zurich,                   Switzerland (Parallel CI and MCSCF, MC-srDFT)
  Rika Kobayashi,           Australian National Univ.,    Australia   (DIIS in CC, London in MCSCF)
  Henrik Koch,              NTNU,                         Norway      (CC module, Cholesky decomposition)
  Jacob Kongsted,           Univ. of Southern Denmark,    Denmark     (Polarizable embedding, polarizable density embedding, QM/MM)
  Andrea Ligabue,           University of Modena,         Italy       (CTOCD, AOSOPPA)
  Nanna H. List             Univ. of Southern Denmark,    Denmark     (Polarizable embedding)
  Ola B. Lutnaes,           University of Oslo,           Norway      (DFT Hessian)
  Juan I. Melo,             University of Buenos Aires,   Argentina   (LRESC, Relativistic Effects on NMR Shieldings)
  Kurt V. Mikkelsen,        University of Copenhagen,     Denmark     (MC-SCRF and QM/MM)
  Rolf H. Myhre,            NTNU,                         Norway      (Subsystems and CC3)
  Christian Neiss,          Univ. Erlangen-Nuernberg,     Germany     (CCSD(R12))
  Christian B. Nielsen,     University of Copenhagen,     Denmark     (QM/MM)
  Patrick Norman,           KTH Stockholm,                Sweden      (Cubic response and complex frequency response in RESPONS)
  Jeppe Olsen,              Aarhus University,            Denmark     (SIRIUS CI/density modules)
  Jogvan Magnus H. Olsen,   Aarhus University,            Denmark     (Polarizable embedding and polarizable density embedding)
  Anders Osted,             Copenhagen University,        Denmark     (QM/MM)
  Martin J. Packer,         University of Sheffield,      UK          (SOPPA)
  Filip Pawlowski,          Kazimierz Wielki University,  Poland      (CC3)
  Morten N. Pedersen,       Univ. of Southern Denmark,    Denmark     (Polarizable embedding)
  Thomas B. Pedersen,       University of Oslo,           Norway      (Cholesky decomposition)
  Patricio F. Provasi,      University of Northeastern,   Argentina   (Analysis of coupling constants in localized orbitals)
  Peter Reinholdt,          Univ. of Southern Denmark,    Denmark     (Polarizable embedding and polarizable density embedding)
  Zilvinas Rinkevicius,     KTH Stockholm,                Sweden      (open-shell DFT, ESR)
  Elias Rudberg,            KTH Stockholm,                Sweden      (DFT grid and basis info)
  Torgeir A. Ruden,         University of Oslo,           Norway      (Numerical derivatives in ABACUS)
  Kenneth Ruud,             UiT The Arctic U. of Norway,  Norway      (DALTON; ABACUS magnetic properties and much more)
  Pawel Salek,              KTH Stockholm,                Sweden      (DALTON; DFT code)
  Claire C. M. Samson       University of Karlsruhe       Germany     (Boys localization, r12 integrals in ERI)
  Alfredo Sanchez de Meras, University of Valencia,       Spain       (CC module, Cholesky decomposition)
  Trond Saue,               Paul Sabatier University,     France      (direct Fock matrix construction)
  Stephan P. A. Sauer,      University of Copenhagen,     Denmark     (SOPPA(CCSD), SOPPA prop., AOSOPPA, vibrational g-factors)
  Bernd Schimmelpfennig,    Forschungszentrum Karlsruhe,  Germany     (AMFI module)
  Anna K. Schnack-Petersen, University of Copenhagen,     Denmark     (RPA(D) and HRPA(D) properties in AOSOPPA)
  Kristian Sneskov,         Aarhus University,            Denmark     (Polarizable embedding, QM/MM)
  Arnfinn H. Steindal,      UiT The Arctic U. of Norway,  Norway      (parallel QM/MM, polarizable embedding)
  Casper Steinmann,         Aalborg University,           Denmark     (QFIT, polarizable embedding)
  K. O. Sylvester-Hvid,     University of Copenhagen,     Denmark     (MC-SCRF)
  Peter R. Taylor,          VLSCI/Univ. of Melbourne,     Australia   (Symmetry handling ABACUS, integral transformation)
  Andrew M. Teale,          University of Nottingham,     England     (DFT-AC, DFT-D)
  David P. Tew,             University of Bristol,        England     (CCSD(R12))
  Julien Toulouse,          Sorbonne Univ.,               France      (MC-srDFT)
  Olav Vahtras,             KTH Stockholm,                Sweden      (Triplet response, spin-orbit, ESR, TDDFT, open-shell DFT)
  Lucas Visscher,           Vrije Universiteit Amsterdam, Netherlands (Frozen density embedding)
  David J. Wilson,          La Trobe University,          Australia   (DFT Hessian and DFT magnetizabilities)
  Hans Agren,               KTH Stockholm,                Sweden      (SIRIUS module, RESPONS, MC-SCRF solvation)
 --------------------------------------------------------------------------------

     Date and time (Linux)  : Wed Jan 11 14:14:48 2023
     Host name              : cn041                                   

 * Work memory size             :    64000000 =  488.28 megabytes.

 * Directories for basis set searches:
   1) /gpfs/projects/rjh/adrian/fd_compare/dalton/hf/LiCl/dipole
   2) /gpfs/projects/rjh/adrian/dalton/build/basis


Compilation information
-----------------------

 Who compiled             | ahurtado
 Host                     | sn-mem
 System                   | Linux-3.10.0-1160.24.1.el7.x86_64
 CMake generator          | Unix Makefiles
 Processor                | x86_64
 64-bit integers          | OFF
 MPI                      | ON
 Fortran compiler         | /gpfs/software/intel/oneAPI/2021_4/mpi/2021.4.0/bi
                          | n/mpif90
 Fortran compiler version | GNU Fortran (GCC) 11.2.0
 C compiler               | /gpfs/software/intel/oneAPI/2021_4/mpi/2021.4.0/bi
                          | n/mpicc
 C compiler version       | gcc (GCC) 11.2.0
 C++ compiler             | /gpfs/software/intel/oneAPI/2021_4/mpi/2021.4.0/bi
                          | n/mpicxx
 C++ compiler version     | unknown
 BLAS                     | /gpfs/software/intel/oneAPI/2021_4/mkl/2021.4.0/li
                          | b/intel64/libmkl_gf_lp64.so;/gpfs/software/intel/o
                          | neAPI/2021_4/mkl/2021.4.0/lib/intel64/libmkl_seque
                          | ntial.so;/gpfs/software/intel/oneAPI/2021_4/mkl/20
                          | 21.4.0/lib/intel64/libmkl_core.so;/usr/lib64/libpt
                          | hread.so;/usr/lib64/libm.so
 LAPACK                   | /gpfs/software/intel/oneAPI/2021_4/mkl/2021.4.0/li
                          | b/intel64/libmkl_lapack95_lp64.a;/gpfs/software/in
                          | tel/oneAPI/2021_4/mkl/2021.4.0/lib/intel64/libmkl_
                          | gf_lp64.so
 Static linking           | OFF
 Last Git revision        | 66052b3af5ea7225e31178bf9a8b031913c72190
 Git branch               | (HEAD detached at Dalton2020.0)
 Configuration time       | 2023-01-11 13:33:37.731835

 * MPI parallel run using 20 processes.


   Content of the .dal input file
 ----------------------------------

**DALTON INPUT
.RUN RESPONSE
.DIRECT
**WAVE FUNCTIONS
.HF
**RESPONSE
*LINEAR
.DIPLEN
.FREQUENCIES
9
0.0 0.0136945625 0.027389125 0.0410836875 0.05477825 0.06847281250000001 0.082167375 0.0958619375 0.
**END OF DALTON INPUT


   Content of the .mol file
 ----------------------------

BASIS
d-aug-cc-pVDZ
blah
blah
Atomtype=2 Atomic
Charge=3 Atoms=1
Li_a 0.000000000000 0.000000000000 0.000000000000
Charge=17 Atoms=1
Cl_a 0.000000000000 0.000000000000 3.818500000000


       *******************************************************************
       *********** Output from DALTON general input processing ***********
       *******************************************************************

 --------------------------------------------------------------------------------
   Overall default print level:    0
   Print level for DALTON.STAT:    1

    Parallel calculation using MPI
    AO-direct calculation (in sections where implemented)
    HERMIT 1- and 2-electron integral sections will be executed
    "Old" integral transformation used (limited to max 255 basis functions)
    Wave function sections will be executed (SIRIUS module)
    Dynamic molecular response properties section will be executed (RESPONSE module)
 --------------------------------------------------------------------------------


   ****************************************************************************
   *************** Output of molecule and basis set information ***************
   ****************************************************************************


    The two title cards from your ".mol" input:
    ------------------------------------------------------------------------
 1: blah                                                                    
 2: blah                                                                    
    ------------------------------------------------------------------------

  Atomic type no.    1
  --------------------
  Nuclear charge:   3.00000
  Number of symmetry independent centers:    1
  Number of basis sets to read;    2
  Basis set file used for this atomic type with Z =   3 :
     "/gpfs/projects/rjh/adrian/dalton/build/basis/aug-cc-pVDZ"

  Atomic type no.    2
  --------------------
  Nuclear charge:  17.00000
  Number of symmetry independent centers:    1
  Number of basis sets to read;    2
  Basis set file used for this atomic type with Z =  17 :
     "/gpfs/projects/rjh/adrian/dalton/build/basis/aug-cc-pVDZ"


                      SYMADD: Requested addition of symmetry
                      --------------------------------------

 Symmetry test threshold:  5.00E-06

@   The molecule is centered at center of mass and rotated
@   so principal axes of inertia are along coordinate axes.

 Symmetry class found: C(oo,v)        

 Symmetry Independent Centres             
 ----------------------------
Cl_a  17 :      0.00000000     0.00000000     0.63810184  Isotope  1
Li_a   3 :      0.00000000     0.00000000    -3.18039816  Isotope  1

 The following symmetry elements were found:   X  Y     


                         SYMGRP: Point group information
                         -------------------------------

@    Full point group is: C(oo,v)        
@    Represented as:      C2v

@  * The irrep name for each symmetry:    1: A1     2: B1     3: B2     4: A2 

   * The point group was generated by:

      Reflection in the yz-plane
      Reflection in the xz-plane

   * Group multiplication table

        |  E   C2z  Oxz  Oyz
   -----+--------------------
     E  |  E   C2z  Oxz  Oyz
    C2z | C2z   E   Oyz  Oxz
    Oxz | Oxz  Oyz   E   C2z
    Oyz | Oyz  Oxz  C2z   E 

   * Character table

        |  E   C2z  Oxz  Oyz
   -----+--------------------
    A1  |   1    1    1    1
    B1  |   1   -1    1   -1
    B2  |   1   -1   -1    1
    A2  |   1    1   -1   -1

   * Direct product table

        | A1   B1   B2   A2 
   -----+--------------------
    A1  | A1   B1   B2   A2 
    B1  | B1   A1   A2   B2 
    B2  | B2   A2   A1   B1 
    A2  | A2   B2   B1   A1 


                                 Isotopic Masses
                                 ---------------

                           Li_a        7.016005
                           Cl_a       34.968853

                       Total mass:    41.984858 amu
                       Natural abundance:  70.087 %

 Center-of-mass coordinates (a.u.):    0.000000    0.000000    0.000000
 Center-of-mass coordinates (Angs):    0.000000    0.000000    0.000000


  Atoms and basis sets
  --------------------

  Number of atom types :    2
  Total number of atoms:    2

  Basis set used is "d-aug-cc-pVDZ" from the basis set library.

  label    atoms   charge   prim   cont     basis
  ----------------------------------------------------------------------
  Li          1    3.0000    44    32      [11s6p3d|5s4p3d]                                   
  Cl          1   17.0000    59    36      [14s10p3d|6s5p3d]                                  
  ----------------------------------------------------------------------
  total:      2   20.0000   103    68
  ----------------------------------------------------------------------
  Spherical harmonic basis used.

  Threshold for neglecting AO integrals:  1.00D-12


  Cartesian Coordinates (a.u.)
  ----------------------------

  Total number of coordinates:    6
  Li_a    :     1  x   0.0000000000    2  y   0.0000000000    3  z  -3.1803981612
  Cl_a    :     4  x   0.0000000000    5  y   0.0000000000    6  z   0.6381018388


  Symmetry Coordinates
  --------------------

  Number of coordinates in each symmetry:     2    2    2    0

  Symmetry  A1  ( 1)

    1   Li_a  z    3
    2   Cl_a  z    6

  Symmetry  B1  ( 2)

    3   Li_a  x    1
    4   Cl_a  x    4

  Symmetry  B2  ( 3)

    5   Li_a  y    2
    6   Cl_a  y    5


   Interatomic separations (in Angstrom):
   --------------------------------------

            Li_a        Cl_a  
            ------      ------
 Li_a  :    0.000000
 Cl_a  :    2.020663    0.000000


  Max    interatomic separation is    2.0207 Angstrom (    3.8185 Bohr)
  between atoms    2 and    1, "Cl_a  " and "Li_a  ".

  Min YX interatomic separation is    2.0207 Angstrom (    3.8185 Bohr)


  Bond distances (Angstrom):
  --------------------------

                  atom 1     atom 2       distance
                  ------     ------       --------
  bond distance:  Cl_a       Li_a         2.020663




 Principal moments of inertia (u*A**2) and principal axes
 --------------------------------------------------------

   IA       0.000000          0.000000    0.000000    1.000000
   IB      23.859781          0.000000    1.000000    0.000000
   IC      23.859781          1.000000    0.000000    0.000000


 Rotational constants
 --------------------

@    The molecule is linear.

               B =        21181.21 MHz     (    0.706529 cm-1)


@  Nuclear repulsion energy :   13.356029854655 Hartree


  Symmetry Orbitals
  -----------------

  Number of orbitals in each symmetry:          32   15   15    6


  Symmetry  A1 ( 1)

    1     Li_a     1s         1
    2     Li_a     1s         2
    3     Li_a     1s         3
    4     Li_a     1s         4
    5     Li_a     1s         5
    6     Li_a     2pz        8
    7     Li_a     2pz       11
    8     Li_a     2pz       14
    9     Li_a     2pz       17
   10     Li_a     3d0       20
   11     Li_a     3d2+      22
   12     Li_a     3d0       25
   13     Li_a     3d2+      27
   14     Li_a     3d0       30
   15     Li_a     3d2+      32
   16     Cl_a     1s        33
   17     Cl_a     1s        34
   18     Cl_a     1s        35
   19     Cl_a     1s        36
   20     Cl_a     1s        37
   21     Cl_a     1s        38
   22     Cl_a     2pz       41
   23     Cl_a     2pz       44
   24     Cl_a     2pz       47
   25     Cl_a     2pz       50
   26     Cl_a     2pz       53
   27     Cl_a     3d0       56
   28     Cl_a     3d2+      58
   29     Cl_a     3d0       61
   30     Cl_a     3d2+      63
   31     Cl_a     3d0       66
   32     Cl_a     3d2+      68


  Symmetry  B1 ( 2)

   33     Li_a     2px        6
   34     Li_a     2px        9
   35     Li_a     2px       12
   36     Li_a     2px       15
   37     Li_a     3d1+      21
   38     Li_a     3d1+      26
   39     Li_a     3d1+      31
   40     Cl_a     2px       39
   41     Cl_a     2px       42
   42     Cl_a     2px       45
   43     Cl_a     2px       48
   44     Cl_a     2px       51
   45     Cl_a     3d1+      57
   46     Cl_a     3d1+      62
   47     Cl_a     3d1+      67


  Symmetry  B2 ( 3)

   48     Li_a     2py        7
   49     Li_a     2py       10
   50     Li_a     2py       13
   51     Li_a     2py       16
   52     Li_a     3d1-      19
   53     Li_a     3d1-      24
   54     Li_a     3d1-      29
   55     Cl_a     2py       40
   56     Cl_a     2py       43
   57     Cl_a     2py       46
   58     Cl_a     2py       49
   59     Cl_a     2py       52
   60     Cl_a     3d1-      55
   61     Cl_a     3d1-      60
   62     Cl_a     3d1-      65


  Symmetry  A2 ( 4)

   63     Li_a     3d2-      18
   64     Li_a     3d2-      23
   65     Li_a     3d2-      28
   66     Cl_a     3d2-      54
   67     Cl_a     3d2-      59
   68     Cl_a     3d2-      64

  Symmetries of electric field:  B1 (2)  B2 (3)  A1 (1)

  Symmetries of magnetic field:  B2 (3)  B1 (2)  A2 (4)


                     .---------------------------------------.
                     | Starting in Integral Section (HERMIT) |
                     `---------------------------------------'



 ***************************************************************************************
 ****************** Output from **INTEGRALS input processing (HERMIT) ******************
 ***************************************************************************************


 - Using defaults, no **INTEGRALS input found

 Default print level:        1

 Calculation of one-electron Hamiltonian integrals.

 Center of mass  (bohr):      0.000000000000      0.000000000000      0.000000000000
 Operator center (bohr):      0.000000000000      0.000000000000      0.000000000000
 Gauge origin    (bohr):      0.000000000000      0.000000000000      0.000000000000
 Dipole origin   (bohr):      0.000000000000      0.000000000000      0.000000000000


     ************************************************************************
     ************************** Output from HERINT **************************
     ************************************************************************



                      Nuclear contribution to dipole moments
                      --------------------------------------

                 au               Debye          C m (/(10**-30)

      z      1.30653678         3.32088503        11.07728009


  Total CPU  time used in HERMIT:   0.10 seconds
  Total wall time used in HERMIT:   0.11 seconds


                        .----------------------------------.
                        | End of Integral Section (HERMIT) |
                        `----------------------------------'



                   .--------------------------------------------.
                   | Starting in Wave Function Section (SIRIUS) |
                   `--------------------------------------------'


 *** Output from Huckel module :

     Using EWMO model:          T
     Using EHT  model:          F
     Number of Huckel orbitals each symmetry:   10    4    4    1

 EWMO - Energy Weighted Maximum Overlap - is a Huckel type method,
        which normally is better than Extended Huckel Theory.
 Reference: Linderberg and Ohrn, Propagators in Quantum Chemistry (Wiley, 1973)

 Huckel EWMO eigenvalues for symmetry :  1
         -104.883964     -10.609452      -8.072241      -2.486708      -1.123908
           -0.513960      -0.171611      -0.085660      -0.055556      -0.054851

 Huckel EWMO eigenvalues for symmetry :  2
           -8.072216      -0.518935      -0.119286      -0.053719

 Huckel EWMO eigenvalues for symmetry :  3
           -8.072216      -0.518935      -0.119286      -0.053719

 Huckel EWMO eigenvalues for symmetry :  4
           -0.055556

 **********************************************************************
 *SIRIUS* a direct, restricted step, second order MCSCF program       *
 **********************************************************************

 
     Date and time (Linux)  : Wed Jan 11 14:14:48 2023
     Host name              : cn041                                   

 Title lines from ".mol" input file:
     blah                                                                    
     blah                                                                    

 Print level on unit LUPRI =   2 is   0
 Print level on unit LUW4  =   2 is   5

@    Restricted, closed shell Hartree-Fock calculation.

@    Time-dependent Hartree-Fock calculation (random phase approximation).
 Fock matrices are calculated directly and in parallel without use of integrals on disk.

 Initial molecular orbitals are obtained according to
 ".MOSTART EWMO  " input option

     Wave function specification
     ============================
@    Wave function type        --- HF ---
@    Number of closed shell electrons          20
@    Number of electrons in active shells       0
@    Total charge of the molecule               0

@    Spin multiplicity and 2 M_S                1         0
@    Total number of symmetries                 4 (point group: C2v)
@    Reference state symmetry                   1 (irrep name : A1 )

     Orbital specifications
     ======================
@    Abelian symmetry species          All |    1    2    3    4
@                                          |  A1   B1   B2   A2 
                                       --- |  ---  ---  ---  ---
@    Total number of orbitals           68 |   32   15   15    6
@    Number of basis functions          68 |   32   15   15    6

      ** Automatic occupation of RHF orbitals **

      -- Initial occupation of symmetries is determined from extended Huckel guess.           
      -- Initial occupation of symmetries is :
@    Occupied SCF orbitals              10 |    6    2    2    0

     Maximum number of Fock   iterations      0
     Maximum number of DIIS   iterations     60
     Maximum number of QC-SCF iterations     60
     Threshold for SCF convergence     1.00D-05


 ***********************************************
 ***** DIIS acceleration of SCF iterations *****
 ***********************************************

 C1-DIIS algorithm; max error vectors =    8

 Automatic occupation of symmetries with  20 electrons.

 Iter     Total energy    Error norm  Delta(E)    SCF occupation
 -----------------------------------------------------------------------------
   1  Screening settings (-IFTHRS, JTDIIS, DIFDEN, times)   -7    1    T  5.08D-02  5.10D-02
@  1  -466.994201183       6.67D-01  -4.67D+02     6   2   2   0
      Virial theorem: -V/T =      1.997340
@    MULPOP   Li_a    0.72; Cl_a   -0.72; 
   1  Level shift: doubly occupied orbital energies shifted by -2.00D-01
 -----------------------------------------------------------------------------
   2  Screening settings (-IFTHRS, JTDIIS, DIFDEN, times)   -7    2    T  2.84D-02  2.90D-02
@  2  -467.034643211       1.59D-01  -4.04D-02     6   2   2   0
      Virial theorem: -V/T =      2.000487
@    MULPOP   Li_a    0.24; Cl_a   -0.24; 
   2  Level shift: doubly occupied orbital energies shifted by -5.00D-02
 -----------------------------------------------------------------------------
   3  Screening settings (-IFTHRS, JTDIIS, DIFDEN, times)   -7    3    T  2.67D-02  2.60D-02
@  3  -467.038118161       4.76D-02  -3.47D-03     6   2   2   0
      Virial theorem: -V/T =      1.999912
@    MULPOP   Li_a    0.18; Cl_a   -0.18; 
   3  Level shift: doubly occupied orbital energies shifted by -2.50D-02
 -----------------------------------------------------------------------------
   4  Screening settings (-IFTHRS, JTDIIS, DIFDEN, times)  -11    4    F  2.71D-02  2.70D-02
@  4  -467.038664356       1.09D-02  -5.46D-04     6   2   2   0
      Virial theorem: -V/T =      2.000037
@    MULPOP   Li_a    0.15; Cl_a   -0.15; 
 -----------------------------------------------------------------------------
   5  Screening settings (-IFTHRS, JTDIIS, DIFDEN, times)  -11    5    T  2.82D-02  2.80D-02
@  5  -467.038704014       3.58D-03  -3.97D-05     6   2   2   0
      Virial theorem: -V/T =      2.000017
@    MULPOP   Li_a    0.16; Cl_a   -0.16; 
 -----------------------------------------------------------------------------
   6  Screening settings (-IFTHRS, JTDIIS, DIFDEN, times)  -11    6    T  2.65D-02  2.60D-02
@  6  -467.038708244       6.69D-04  -4.23D-06     6   2   2   0
      Virial theorem: -V/T =      2.000027
@    MULPOP   Li_a    0.16; Cl_a   -0.16; 
 -----------------------------------------------------------------------------
   7  Screening settings (-IFTHRS, JTDIIS, DIFDEN, times)  -11    7    T  2.65D-02  2.60D-02
@  7  -467.038708386       1.11D-04  -1.41D-07     6   2   2   0
      Virial theorem: -V/T =      2.000027
@    MULPOP   Li_a    0.16; Cl_a   -0.16; 
 -----------------------------------------------------------------------------
   8  Screening settings (-IFTHRS, JTDIIS, DIFDEN, times)  -11    8    T  2.66D-02  2.60D-02
@  8  -467.038708389       1.67D-05  -3.26D-09     6   2   2   0
      Virial theorem: -V/T =      2.000027
@    MULPOP   Li_a    0.16; Cl_a   -0.16; 
 -----------------------------------------------------------------------------
   9  Screening settings (-IFTHRS, JTDIIS, DIFDEN, times)  -11    9    T  2.65D-02  2.60D-02
@  9  -467.038708389       3.99D-06  -6.90D-11     6   2   2   0

@ *** DIIS converged in   9 iterations !
@     Converged SCF energy, gradient:   -467.038708389024    3.99D-06
    - total time used in SIRFCK :              0.00 seconds


 *** SCF orbital energy analysis ***

 Only the 20 lowest virtual orbital energies printed in each symmetry.

 Number of electrons :   20
 Orbital occupations :    6    2    2    0

 Sym       Hartree-Fock orbital energies

1 A1   -104.72967744   -10.45627514    -7.92276580    -2.48891898    -0.97446392
         -0.40928155    -0.01595602     0.00204653     0.00686069     0.01636173
          0.03110194     0.05711711     0.07422176     0.09550157     0.10290466
          0.13386316     0.22305578     0.24664448     0.25868192     0.25983401
          0.29374298     0.38408640     0.47541338     0.64294371     0.65461452
          0.68268824

2 B1     -7.92178804    -0.38018370     0.00312667     0.01196623     0.04694814
          0.05832918     0.13563659     0.15669886     0.23297330     0.35270340
          0.39780944     0.61529720     0.76232522     1.09925909     1.62078625

3 B2     -7.92178804    -0.38018370     0.00312667     0.01196623     0.04694814
          0.05832918     0.13563659     0.15669886     0.23297330     0.35270340
          0.39780944     0.61529720     0.76232522     1.09925909     1.62078625

4 A2      0.10290466     0.25983401     0.29374298     0.64294371     0.68268824
          1.60508644

    E(LUMO) :    -0.01595602 au (symmetry 1)
  - E(HOMO) :    -0.38018370 au (symmetry 2)
  ------------------------------------------
    gap     :     0.36422768 au

 --- Writing SIRIFC interface file

 CPU and wall time for SCF :       0.281       0.283


                       .-----------------------------------.
                       | --- Final results from SIRIUS --- |
                       `-----------------------------------'


@    Spin multiplicity:           1
@    Spatial symmetry:            1 ( irrep  A1  in C2v )
@    Total charge of molecule:    0

@    Final HF energy:            -467.038708389024                 
@    Nuclear repulsion:            13.356029854655
@    Electronic energy:          -480.394738243679

@    Final gradient norm:           0.000003993467

 
     Date and time (Linux)  : Wed Jan 11 14:14:48 2023
     Host name              : cn041                                   

File label for MO orbitals:  11Jan23   FOCKDIIS

 (Only coefficients > 0.0100 are printed.)

 Molecular orbitals for symmetry species 1  (A1 )
 ------------------------------------------------

    Orbital         1        2        3        4        5        6        7
   1 Li_a:1s     0.0000   0.0003   0.0004  -0.9907  -0.0189  -0.0094   0.0087
   2 Li_a:1s     0.0001   0.0008   0.0007   0.0195   0.0791   0.2584  -0.2005
   3 Li_a:1s    -0.0004  -0.0085  -0.0012   0.0636   0.1321   0.4092  -0.2794
   4 Li_a:1s    -0.0001  -0.0019  -0.0005   0.0103   0.0295   0.0875  -0.4089
   5 Li_a:1s     0.0000   0.0003   0.0001  -0.0017  -0.0045  -0.0139  -0.0982
   6 Li_a:2pz    0.0002   0.0038   0.0008   0.0301   0.0683   0.2569   0.1539
   7 Li_a:2pz   -0.0002  -0.0045  -0.0003   0.0207   0.0416   0.1240   0.3777
   8 Li_a:2pz    0.0000   0.0002  -0.0001  -0.0003   0.0025   0.0068   0.2275
   9 Li_a:2pz   -0.0000  -0.0001   0.0000  -0.0001  -0.0007  -0.0023  -0.0162
  10 Li_a:3d0    0.0000   0.0005  -0.0001   0.0083   0.0164   0.0528  -0.0249
  12 Li_a:3d0    0.0002   0.0037   0.0005  -0.0028  -0.0094  -0.0166   0.0346
  14 Li_a:3d0   -0.0001  -0.0026  -0.0000   0.0086   0.0141   0.0417  -0.0327
  16 Cl_a:1s     1.0000   0.0006   0.0000   0.0003  -0.0029  -0.0016   0.0003
  17 Cl_a:1s     0.0002   1.0045   0.0016   0.0022  -0.0220  -0.0131   0.0024
  18 Cl_a:1s     0.0005   0.0105  -0.0004  -0.0025   0.9257  -0.1121   0.0419
  19 Cl_a:1s    -0.0010  -0.0198  -0.0000  -0.0080   0.0472   0.0051   0.0005
  20 Cl_a:1s     0.0005   0.0102  -0.0011  -0.0498  -0.0844  -0.3731   0.0096
  21 Cl_a:1s     0.0004   0.0066   0.0018  -0.0447  -0.1158  -0.3408  -0.0425
  22 Cl_a:2pz   -0.0000  -0.0018   0.9999  -0.0007   0.0024   0.0051   0.0002
  23 Cl_a:2pz   -0.0000  -0.0012  -0.0017   0.0052  -0.0300  -0.9058  -0.0573
  24 Cl_a:2pz    0.0002   0.0036   0.0011   0.0116  -0.0040   0.0203  -0.0157
  25 Cl_a:2pz   -0.0002  -0.0039  -0.0009   0.0148   0.0675   0.1336  -0.0904
  26 Cl_a:2pz   -0.0000  -0.0006  -0.0001   0.0069   0.0124   0.0423  -0.0451
  27 Cl_a:3d0    0.0000   0.0002  -0.0001  -0.0019   0.0062   0.0152   0.0011
  29 Cl_a:3d0   -0.0001  -0.0009  -0.0002  -0.0034   0.0106   0.0225   0.0050
  31 Cl_a:3d0    0.0001   0.0018   0.0002   0.0005  -0.0146  -0.0237   0.0408

    Orbital         8        9       10       11       12       13       14
   1 Li_a:1s    -0.0026  -0.0017  -0.0128  -0.0001   0.0361   0.0183   0.0161
   2 Li_a:1s     0.0644   0.0564  -0.1344  -0.1373   0.0149  -0.1135  -0.1780
   3 Li_a:1s     0.4442   0.6420   0.7000   2.4497  -2.4293  -0.4454  -9.5650
   4 Li_a:1s     0.9776   1.3821   1.0512   4.7692  -0.6572   1.0723  -4.7236
   5 Li_a:1s    -0.9687  -1.3802  -0.6654  -1.3516   0.2857  -0.1440   0.8470
   6 Li_a:2pz   -0.0404  -0.0370   0.0893   0.1620   0.0151   0.0591   0.0702
   7 Li_a:2pz    0.1172   0.1484   0.5513   1.9939   0.2770  -0.7737  -4.5761
   8 Li_a:2pz   -0.0443   0.3704  -1.6556   0.2721   0.6804   0.9174   0.0663
   9 Li_a:2pz    0.8433  -0.7405   0.5558  -0.1309  -0.0383  -0.2408   0.0106
  10 Li_a:3d0    0.0115   0.0158  -0.0108  -0.0046   0.0067   0.2383   0.0708
  12 Li_a:3d0   -0.0263  -0.0466   0.0207  -0.0816  -0.0457  -0.7131  -0.1471
  14 Li_a:3d0    0.0585   0.0727   0.0547   0.2341   0.0715   0.8609  -0.3238
  17 Cl_a:1s    -0.0026  -0.0014  -0.0024  -0.0095   0.0015   0.0278   0.0324
  18 Cl_a:1s    -0.0171  -0.0094   0.0258  -0.0259   0.0203   0.1679   0.0464
  19 Cl_a:1s     0.0140   0.0102   0.0343   0.0714   0.0033  -0.1022  -0.2701
  20 Cl_a:1s    -0.1035  -0.0676  -0.1888  -0.4905   0.0156   0.8181   1.8201
  21 Cl_a:1s    -0.6335  -1.0417  -0.9951  -5.5646   1.8591  -1.5620  12.3606
  23 Cl_a:2pz    0.0177   0.0192  -0.0272  -0.0236   0.0341  -0.0291  -0.0961
  24 Cl_a:2pz    0.0038  -0.0036   0.0033  -0.0390  -0.0097  -0.0499   0.0594
  25 Cl_a:2pz    0.0793   0.1190  -0.0133   0.3716  -0.1108  -0.0059  -1.5055
  26 Cl_a:2pz    0.1084   0.2200   0.9785   1.0478  -2.5000  -0.2351  -2.1376
  29 Cl_a:3d0   -0.0045  -0.0018   0.0056  -0.0085  -0.0355   0.0065   0.0246
  31 Cl_a:3d0   -0.0080  -0.0210  -0.0016   0.0176   0.1677  -0.0715   0.0378

    Orbital        15       16
   1 Li_a:1s     0.0000  -0.0230
   2 Li_a:1s     0.0000   0.1338
   3 Li_a:1s    -0.0000   1.0376
   4 Li_a:1s    -0.0000   0.9375
   5 Li_a:1s     0.0000  -0.1539
   6 Li_a:2pz   -0.0000   0.1004
   7 Li_a:2pz   -0.0000   3.0891
   9 Li_a:2pz   -0.0000   0.0479
  10 Li_a:3d0    0.0000   0.5059
  11 Li_a:3d2+  -0.3959  -0.0000
  12 Li_a:3d0   -0.0000  -1.2532
  13 Li_a:3d2+   1.2434   0.0000
  14 Li_a:3d0    0.0000   2.8945
  15 Li_a:3d2+  -1.8896  -0.0000
  17 Cl_a:1s    -0.0000  -0.0361
  18 Cl_a:1s    -0.0000  -0.1089
  19 Cl_a:1s     0.0000   0.2652
  20 Cl_a:1s     0.0000  -3.1018
  21 Cl_a:1s     0.0000  -0.7586
  23 Cl_a:2pz    0.0000  -0.0776
  24 Cl_a:2pz   -0.0000   0.2811
  25 Cl_a:2pz   -0.0000  -0.9391
  26 Cl_a:2pz   -0.0000  -0.8953
  27 Cl_a:3d0   -0.0000   0.0135
  29 Cl_a:3d0    0.0000  -0.1307
  30 Cl_a:3d2+  -0.0443  -0.0000
  31 Cl_a:3d0   -0.0000   0.3564
  32 Cl_a:3d2+   0.1715  -0.0000

 Molecular orbitals for symmetry species 2  (B1 )
 ------------------------------------------------

    Orbital         1        2        3        4        5        6        7
   1 Li_a:2px    0.0002  -0.1036  -0.0107   0.0373   0.2022   0.0894  -0.0341
   2 Li_a:2px   -0.0004  -0.0205  -0.0894   0.2169   0.9367   1.4706  -2.6571
   3 Li_a:2px    0.0001  -0.0018   0.0540   1.5286  -1.1781   0.6352  -0.1017
   4 Li_a:2px   -0.0000   0.0003  -1.0340  -0.6883   0.3119  -0.0515  -0.0221
   5 Li_a:3d1+  -0.0002  -0.0340   0.0073  -0.0080  -0.1579  -0.0286  -0.3030
   6 Li_a:3d1+   0.0009   0.0219  -0.0170   0.0033   0.4130   0.0499   1.0119
   7 Li_a:3d1+  -0.0008  -0.0415   0.0068  -0.0355  -0.4415   0.0717  -2.7540
   8 Cl_a:2px   -0.9999   0.0047   0.0001   0.0003  -0.0019   0.0009   0.0056
   9 Cl_a:2px    0.0020  -0.9090   0.0090  -0.0351  -0.1190   0.0201   0.0809
  10 Cl_a:2px   -0.0010  -0.0387  -0.0004  -0.0120   0.0165  -0.0110  -0.1252
  11 Cl_a:2px    0.0009  -0.0041   0.0327   0.0125  -0.4434  -0.1552   2.1603
  12 Cl_a:2px   -0.0001   0.0078   0.0669  -0.6041   0.8420  -2.1608   1.2132
  13 Cl_a:3d1+   0.0001   0.0105  -0.0002  -0.0002  -0.0053   0.0033  -0.0084
  14 Cl_a:3d1+   0.0001   0.0240   0.0028  -0.0078  -0.0202  -0.0488   0.0251
  15 Cl_a:3d1+   0.0001  -0.0279  -0.0150   0.0264   0.1144   0.2145  -0.3622

    Orbital         8        9       10       11       12
   1 Li_a:2px    0.4937  -0.5751  -0.3382   2.4656  -0.0885
   2 Li_a:2px   -1.0258  -0.3081   1.0167   1.6277  -0.6134
   3 Li_a:2px    0.4811   0.4485   0.1428  -0.1694  -0.2160
   4 Li_a:2px   -0.1274  -0.0824  -0.0216   0.0552   0.0360
   5 Li_a:3d1+   0.4087   0.1943   0.7327  -0.5740  -2.3037
   6 Li_a:3d1+  -1.6422  -0.5784  -3.5140   1.4713   3.4234
   7 Li_a:3d1+   1.1696  -0.2990   2.7462   0.7139  -1.7904
   8 Cl_a:2px    0.0002   0.0097  -0.0128  -0.0034  -0.0112
   9 Cl_a:2px   -0.1950  -0.1250   0.2151  -0.0937  -0.0961
  10 Cl_a:2px   -0.0760  -0.3370   0.6686   0.0347   0.2178
  11 Cl_a:2px    0.8930   2.1965  -1.1179  -3.3095   0.2346
  12 Cl_a:2px   -0.2586  -0.9122  -0.5104  -0.2184   0.6053
  13 Cl_a:3d1+  -0.0419   0.0631   0.0556   0.0427   0.1523
  14 Cl_a:3d1+   0.0697  -0.0413   0.0351  -0.2646   0.4448
  15 Cl_a:3d1+  -0.6575   0.2696  -0.0578   2.2831  -0.4982

 Molecular orbitals for symmetry species 3  (B2 )
 ------------------------------------------------

    Orbital         1        2        3        4        5        6        7
   1 Li_a:2py    0.0002  -0.1036   0.0107  -0.0373   0.2022   0.0894  -0.0341
   2 Li_a:2py   -0.0004  -0.0205   0.0894  -0.2169   0.9367   1.4706  -2.6571
   3 Li_a:2py    0.0001  -0.0018  -0.0540  -1.5286  -1.1781   0.6352  -0.1017
   4 Li_a:2py   -0.0000   0.0003   1.0340   0.6883   0.3119  -0.0515  -0.0221
   5 Li_a:3d1-  -0.0002  -0.0340  -0.0073   0.0080  -0.1579  -0.0286  -0.3030
   6 Li_a:3d1-   0.0009   0.0219   0.0170  -0.0033   0.4130   0.0499   1.0119
   7 Li_a:3d1-  -0.0008  -0.0415  -0.0068   0.0355  -0.4415   0.0717  -2.7540
   8 Cl_a:2py   -0.9999   0.0047  -0.0001  -0.0003  -0.0019   0.0009   0.0056
   9 Cl_a:2py    0.0020  -0.9090  -0.0090   0.0351  -0.1190   0.0201   0.0809
  10 Cl_a:2py   -0.0010  -0.0387   0.0004   0.0120   0.0165  -0.0110  -0.1252
  11 Cl_a:2py    0.0009  -0.0041  -0.0327  -0.0125  -0.4434  -0.1552   2.1603
  12 Cl_a:2py   -0.0001   0.0078  -0.0669   0.6041   0.8420  -2.1608   1.2132
  13 Cl_a:3d1-   0.0001   0.0105   0.0002   0.0002  -0.0053   0.0033  -0.0084
  14 Cl_a:3d1-   0.0001   0.0240  -0.0028   0.0078  -0.0202  -0.0488   0.0251
  15 Cl_a:3d1-   0.0001  -0.0279   0.0150  -0.0264   0.1144   0.2145  -0.3622

    Orbital         8        9       10       11       12
   1 Li_a:2py    0.4937  -0.5751  -0.3382   2.4656  -0.0885
   2 Li_a:2py   -1.0258  -0.3081   1.0167   1.6277  -0.6134
   3 Li_a:2py    0.4811   0.4485   0.1428  -0.1694  -0.2160
   4 Li_a:2py   -0.1274  -0.0824  -0.0216   0.0552   0.0360
   5 Li_a:3d1-   0.4087   0.1943   0.7327  -0.5740  -2.3037
   6 Li_a:3d1-  -1.6422  -0.5784  -3.5140   1.4713   3.4234
   7 Li_a:3d1-   1.1696  -0.2990   2.7462   0.7139  -1.7904
   8 Cl_a:2py    0.0002   0.0097  -0.0128  -0.0034  -0.0112
   9 Cl_a:2py   -0.1950  -0.1250   0.2151  -0.0937  -0.0961
  10 Cl_a:2py   -0.0760  -0.3370   0.6686   0.0347   0.2178
  11 Cl_a:2py    0.8930   2.1965  -1.1179  -3.3095   0.2346
  12 Cl_a:2py   -0.2586  -0.9122  -0.5104  -0.2184   0.6053
  13 Cl_a:3d1-  -0.0419   0.0631   0.0556   0.0427   0.1523
  14 Cl_a:3d1-   0.0697  -0.0413   0.0351  -0.2646   0.4448
  15 Cl_a:3d1-  -0.6575   0.2696  -0.0578   2.2831  -0.4982

 Molecular orbitals for symmetry species 4  (A2 )
 ------------------------------------------------

    Orbital         1        2        3        4        5        6
   1 Li_a:3d2-  -0.3959  -0.1148  -0.7871  -2.4826  -1.7193  -0.0297
   2 Li_a:3d2-   1.2434   0.2805   3.1601   3.5205   1.9649  -0.1598
   3 Li_a:3d2-  -1.8896   0.5562  -1.9143  -1.6369  -0.4837   0.2755
   4 Cl_a:3d2-  -0.0020  -0.0969   0.0307  -0.0915   0.1187  -1.3030
   5 Cl_a:3d2-  -0.0443   0.1742   0.0084  -0.6031   1.0018   1.2010
   6 Cl_a:3d2-   0.1715  -1.3992  -0.1140   0.4161  -0.6783  -0.5022

  Total CPU  time used in SIRIUS :   0.29 seconds
  Total wall time used in SIRIUS :   0.30 seconds

 
     Date and time (Linux)  : Wed Jan 11 14:14:48 2023
     Host name              : cn041                                   


                     .---------------------------------------.
                     | End of Wave Function Section (SIRIUS) |
                     `---------------------------------------'



                 .------------------------------------------------.
                 | Starting in Dynamic Property Section (RESPONS) |
                 `------------------------------------------------'


 ----------------------------------------------------------------------------------------
  RESPONSE  -  an MCSCF, MC-srDFT, DFT, SOPPA and SOPPA-srDFT response property program
 ----------------------------------------------------------------------------------------


 -------- OUTPUT FROM RESPONSE INPUT PROCESSING --------




 Linear Response calculation
 ---------------------------

 Print level                                    : IPRLR  =   2
 Maximum number of iterations                   : MAXITL =  60
 Threshold for relative convergence             : THCLR  = 1.000D-03
 Maximum iterations in optimal orbital algorithm: MAXITO =   5

  9 B-frequencies  0.000000D+00  1.369456D-02  2.738913D-02  4.108369D-02  5.477825D-02
  6.847281D-02  8.216738D-02  9.586194D-02  1.095565D-01

    1 second order properties calculated with symmetry no.    1 and labels:

          ZDIPLEN 

    1 second order properties calculated with symmetry no.    2 and labels:

          XDIPLEN 

    1 second order properties calculated with symmetry no.    3 and labels:

          YDIPLEN 


   SCF energy         :     -467.038708389023896
 -- inactive part     :     -480.394738243678887
 -- nuclear repulsion :       13.356029854654969


                     ***************************************
                     *** RHF response calculation (TDHF) ***
                     ***************************************

 ----------------------------------------------------------------
 ----- Linear response calculation
 ----- Symmetry of excitation/property operator(s)    1  ( A1 )
 ----------------------------------------------------------------

 Number of excitations of this symmetry            0
 Number of response properties of this symmetry    1
 Number of C6/C8 properties of this symmetry       0


 Perturbation symmetry.     KSYMOP:           1
 Perturbation spin symmetry.TRPLET:           F
 Orbital variables.         KZWOPT:         208
 Configuration variables.   KZCONF:           0
 Total number of variables. KZVAR :         208


 RSPLR -- linear response calculation for symmetry 1  ( A1 )
 RSPLR -- operator label : ZDIPLEN 
 RSPLR -- operator spin  :   0
 RSPLR -- frequencies    :     0.000000  0.013695  0.027389  0.041084  0.054778
                               0.068473  0.082167  0.095862  0.109557



 ---  SOLVING SETS OF LINEAR EQUATIONS FOR LINEAR RESPONSE PROPERTIES ---

 Operator symmetry = 1  ( A1 ); triplet =   F


 ** RSPCTL MICROITERATION NUMBER    1

       No.  Residual tot.,    conf., and orb.    Bnorm      Frequency 
      ----------------------------------------------------------------
         1    1.80426D+00  0.00D+00  1.80D+00  4.69D+00    0.00000D+00
         2    1.80601D+00  0.00D+00  1.81D+00  4.70D+00    1.36946D-02
         3    1.81129D+00  0.00D+00  1.81D+00  4.73D+00    2.73891D-02
         4    1.82023D+00  0.00D+00  1.82D+00  4.79D+00    4.10837D-02
         5    1.83302D+00  0.00D+00  1.83D+00  4.88D+00    5.47783D-02
         6    1.85000D+00  0.00D+00  1.85D+00  4.99D+00    6.84728D-02
         7    1.87159D+00  0.00D+00  1.87D+00  5.14D+00    8.21674D-02
         8    1.89842D+00  0.00D+00  1.90D+00  5.32D+00    9.58619D-02
         9    1.93131D+00  0.00D+00  1.93D+00  5.54D+00    1.09557D-01

 ** RSPCTL MICROITERATION NUMBER    2

       No.  Residual tot.,    conf., and orb.    Bnorm      Frequency 
      ----------------------------------------------------------------
         1    2.72574D-01  0.00D+00  2.73D-01  4.95D+00    0.00000D+00
         2    2.73317D-01  0.00D+00  2.73D-01  4.96D+00    1.36946D-02
         3    2.75568D-01  0.00D+00  2.76D-01  5.00D+00    2.73891D-02
         4    2.79398D-01  0.00D+00  2.79D-01  5.07D+00    4.10837D-02
         5    2.84931D-01  0.00D+00  2.85D-01  5.16D+00    5.47783D-02
         6    2.92355D-01  0.00D+00  2.92D-01  5.29D+00    6.84728D-02
         7    3.01942D-01  0.00D+00  3.02D-01  5.45D+00    8.21674D-02
         8    3.14075D-01  0.00D+00  3.14D-01  5.66D+00    9.58619D-02
         9    3.29296D-01  0.00D+00  3.29D-01  5.91D+00    1.09557D-01

 ** RSPCTL MICROITERATION NUMBER    3

       No.  Residual tot.,    conf., and orb.    Bnorm      Frequency 
      ----------------------------------------------------------------
         1    2.09694D-02  0.00D+00  2.10D-02  4.96D+00    0.00000D+00
         2    2.10627D-02  0.00D+00  2.11D-02  4.97D+00    1.36946D-02
         3    2.13470D-02  0.00D+00  2.13D-02  5.01D+00    2.73891D-02
         4    2.18362D-02  0.00D+00  2.18D-02  5.08D+00    4.10837D-02
         5    2.25551D-02  0.00D+00  2.26D-02  5.18D+00    5.47783D-02
         6    2.35417D-02  0.00D+00  2.35D-02  5.31D+00    6.84728D-02
         7    2.48521D-02  0.00D+00  2.49D-02  5.47D+00    8.21674D-02
         8    2.65675D-02  0.00D+00  2.66D-02  5.68D+00    9.58619D-02
         9    2.88058D-02  0.00D+00  2.88D-02  5.93D+00    1.09557D-01

 ** RSPCTL MICROITERATION NUMBER    4

       No.  Residual tot.,    conf., and orb.    Bnorm      Frequency 
      ----------------------------------------------------------------
         1    2.72344D-03  0.00D+00  2.72D-03  4.96D+00    0.00000D+00
         2    2.73666D-03  0.00D+00  2.74D-03  4.97D+00    1.36946D-02
         3    2.77698D-03  0.00D+00  2.78D-03  5.01D+00    2.73891D-02
         4    2.84639D-03  0.00D+00  2.85D-03  5.08D+00    4.10837D-02
         5    2.94849D-03  0.00D+00  2.95D-03  5.18D+00    5.47783D-02
         6    3.08894D-03  0.00D+00  3.09D-03  5.31D+00    6.84728D-02
         7    3.27612D-03  0.00D+00  3.28D-03  5.47D+00    8.21674D-02
         8    3.52249D-03  0.00D+00  3.52D-03  5.68D+00    9.58619D-02
         9    3.84660D-03  0.00D+00  3.85D-03  5.93D+00    1.09557D-01

 *** THE REQUESTED    9 SOLUTION VECTORS CONVERGED

 Convergence of RSP solution vectors, threshold = 1.00D-03
 ---------------------------------------------------------------
 (dimension of paired reduced space:   72)
 RSP solution vector no.    1; norm of residual   5.49D-04
 RSP solution vector no.    2; norm of residual   5.50D-04
 RSP solution vector no.    3; norm of residual   5.54D-04
 RSP solution vector no.    4; norm of residual   5.60D-04
 RSP solution vector no.    5; norm of residual   5.70D-04
 RSP solution vector no.    6; norm of residual   5.82D-04
 RSP solution vector no.    7; norm of residual   5.99D-04
 RSP solution vector no.    8; norm of residual   6.20D-04
 RSP solution vector no.    9; norm of residual   6.48D-04

 *** RSPCTL MICROITERATIONS CONVERGED


           Final output of second order properties from linear response
           ------------------------------------------------------------


@ Spin symmetry of operators: singlet

 Note that minus the linear response function: - << A; B >>(omega) is printed.
 The results are of quadratic accuracy using Sellers formula.

@ FREQUENCY INDEPENDENT SECOND ORDER PROPERTIES

@ -<< ZDIPLEN  ; ZDIPLEN  >> =  2.426003597700E+01

@ FREQUENCY DEPENDENT SECOND ORDER PROPERTIES WITH FREQUENCY :

@    a.u.:  1.3694563D-02
@    cm-1:  3.0056090D+03
@    eV  :  3.7264800D-01
@  kJ/mol:  3.5955068D+01
@    nm  :  3.3271127D+03

@ -<< ZDIPLEN  ; ZDIPLEN  >> =  2.428958130111E+01

@ FREQUENCY DEPENDENT SECOND ORDER PROPERTIES WITH FREQUENCY :

@    a.u.:  2.7389125D-02
@    cm-1:  6.0112181D+03
@    eV  :  7.4529600D-01
@  kJ/mol:  7.1910137D+01
@    nm  :  1.6635564D+03

@ -<< ZDIPLEN  ; ZDIPLEN  >> =  2.437886771399E+01

@ FREQUENCY DEPENDENT SECOND ORDER PROPERTIES WITH FREQUENCY :

@    a.u.:  4.1083688D-02
@    cm-1:  9.0168271D+03
@    eV  :  1.1179440D+00
@  kJ/mol:  1.0786520D+02
@    nm  :  1.1090376D+03

@ -<< ZDIPLEN  ; ZDIPLEN  >> =  2.452989093800E+01

@ FREQUENCY DEPENDENT SECOND ORDER PROPERTIES WITH FREQUENCY :

@    a.u.:  5.4778250D-02
@    cm-1:  1.2022436D+04
@    eV  :  1.4905920D+00
@  kJ/mol:  1.4382027D+02
@    nm  :  8.3177818D+02

@ -<< ZDIPLEN  ; ZDIPLEN  >> =  2.474613164165E+01

@ FREQUENCY DEPENDENT SECOND ORDER PROPERTIES WITH FREQUENCY :

@    a.u.:  6.8472813D-02
@    cm-1:  1.5028045D+04
@    eV  :  1.8632400D+00
@  kJ/mol:  1.7977534D+02
@    nm  :  6.6542254D+02

@ -<< ZDIPLEN  ; ZDIPLEN  >> =  2.503281142507E+01

@ FREQUENCY DEPENDENT SECOND ORDER PROPERTIES WITH FREQUENCY :

@    a.u.:  8.2167375D-02
@    cm-1:  1.8033654D+04
@    eV  :  2.2358880D+00
@  kJ/mol:  2.1573041D+02
@    nm  :  5.5451878D+02

@ -<< ZDIPLEN  ; ZDIPLEN  >> =  2.539730647813E+01

@ FREQUENCY DEPENDENT SECOND ORDER PROPERTIES WITH FREQUENCY :

@    a.u.:  9.5861937D-02
@    cm-1:  2.1039263D+04
@    eV  :  2.6085360D+00
@  kJ/mol:  2.5168548D+02
@    nm  :  4.7530182D+02

@ -<< ZDIPLEN  ; ZDIPLEN  >> =  2.584979278414E+01

@ FREQUENCY DEPENDENT SECOND ORDER PROPERTIES WITH FREQUENCY :

@    a.u.:  1.0955650D-01
@    cm-1:  2.4044872D+04
@    eV  :  2.9811840D+00
@  kJ/mol:  2.8764055D+02
@    nm  :  4.1588909D+02

@ -<< ZDIPLEN  ; ZDIPLEN  >> =  2.640425397876E+01


 Time used in linear response calculation is      0.28 CPU seconds for symmetry 1
 ----------------------------------------------------------------
 ----- Linear response calculation
 ----- Symmetry of excitation/property operator(s)    2  ( B1 )
 ----------------------------------------------------------------

 Number of excitations of this symmetry            0
 Number of response properties of this symmetry    1
 Number of C6/C8 properties of this symmetry       0


 Perturbation symmetry.     KSYMOP:           2
 Perturbation spin symmetry.TRPLET:           F
 Orbital variables.         KZWOPT:         142
 Configuration variables.   KZCONF:           0
 Total number of variables. KZVAR :         142


 RSPLR -- linear response calculation for symmetry 2  ( B1 )
 RSPLR -- operator label : XDIPLEN 
 RSPLR -- operator spin  :   0
 RSPLR -- frequencies    :     0.000000  0.013695  0.027389  0.041084  0.054778
                               0.068473  0.082167  0.095862  0.109557



 ---  SOLVING SETS OF LINEAR EQUATIONS FOR LINEAR RESPONSE PROPERTIES ---

 Operator symmetry = 2  ( B1 ); triplet =   F


 ** RSPCTL MICROITERATION NUMBER    1

       No.  Residual tot.,    conf., and orb.    Bnorm      Frequency 
      ----------------------------------------------------------------
         1    1.42975D+00  0.00D+00  1.43D+00  4.81D+00    0.00000D+00
         2    1.43089D+00  0.00D+00  1.43D+00  4.82D+00    1.36946D-02
         3    1.43436D+00  0.00D+00  1.43D+00  4.86D+00    2.73891D-02
         4    1.44024D+00  0.00D+00  1.44D+00  4.93D+00    4.10837D-02
         5    1.44867D+00  0.00D+00  1.45D+00  5.02D+00    5.47783D-02
         6    1.45988D+00  0.00D+00  1.46D+00  5.15D+00    6.84728D-02
         7    1.47422D+00  0.00D+00  1.47D+00  5.32D+00    8.21674D-02
         8    1.49216D+00  0.00D+00  1.49D+00  5.54D+00    9.58619D-02
         9    1.51442D+00  0.00D+00  1.51D+00  5.81D+00    1.09557D-01

 ** RSPCTL MICROITERATION NUMBER    2

       No.  Residual tot.,    conf., and orb.    Bnorm      Frequency 
      ----------------------------------------------------------------
         1    1.11381D-01  0.00D+00  1.11D-01  5.03D+00    0.00000D+00
         2    1.11939D-01  0.00D+00  1.12D-01  5.04D+00    1.36946D-02
         3    1.13636D-01  0.00D+00  1.14D-01  5.09D+00    2.73891D-02
         4    1.16535D-01  0.00D+00  1.17D-01  5.16D+00    4.10837D-02
         5    1.20748D-01  0.00D+00  1.21D-01  5.28D+00    5.47783D-02
         6    1.26455D-01  0.00D+00  1.26D-01  5.43D+00    6.84728D-02
         7    1.33919D-01  0.00D+00  1.34D-01  5.62D+00    8.21674D-02
         8    1.43538D-01  0.00D+00  1.44D-01  5.88D+00    9.58619D-02
         9    1.55907D-01  0.00D+00  1.56D-01  6.20D+00    1.09557D-01

 ** RSPCTL MICROITERATION NUMBER    3

       No.  Residual tot.,    conf., and orb.    Bnorm      Frequency 
      ----------------------------------------------------------------
         1    6.75730D-03  0.00D+00  6.76D-03  5.03D+00    0.00000D+00
         2    6.83435D-03  0.00D+00  6.83D-03  5.05D+00    1.36946D-02
         3    7.06717D-03  0.00D+00  7.07D-03  5.09D+00    2.73891D-02
         4    7.46139D-03  0.00D+00  7.46D-03  5.17D+00    4.10837D-02
         5    8.02820D-03  0.00D+00  8.03D-03  5.28D+00    5.47783D-02
         6    8.78700D-03  0.00D+00  8.79D-03  5.43D+00    6.84728D-02
         7    9.76945D-03  0.00D+00  9.77D-03  5.63D+00    8.21674D-02
         8    1.10254D-02  0.00D+00  1.10D-02  5.89D+00    9.58619D-02
         9    1.26333D-02  0.00D+00  1.26D-02  6.21D+00    1.09557D-01

 ** RSPCTL MICROITERATION NUMBER    4

       No.  Residual tot.,    conf., and orb.    Bnorm      Frequency 
      ----------------------------------------------------------------
         1    9.06915D-04  0.00D+00  9.07D-04  5.03D+00    0.00000D+00
         2    9.18282D-04  0.00D+00  9.18D-04  5.05D+00    1.36946D-02
         3    9.52745D-04  0.00D+00  9.53D-04  5.09D+00    2.73891D-02
         4    1.01149D-03  0.00D+00  1.01D-03  5.17D+00    4.10837D-02
         5    1.09680D-03  0.00D+00  1.10D-03  5.28D+00    5.47783D-02
         6    1.21254D-03  0.00D+00  1.21D-03  5.43D+00    6.84728D-02
         7    1.36491D-03  0.00D+00  1.36D-03  5.63D+00    8.21674D-02
         8    1.56362D-03  0.00D+00  1.56D-03  5.89D+00    9.58619D-02
         9    1.82396D-03  0.00D+00  1.82D-03  6.21D+00    1.09557D-01

 *** THE REQUESTED    9 SOLUTION VECTORS CONVERGED

 Convergence of RSP solution vectors, threshold = 1.00D-03
 ---------------------------------------------------------------
 (dimension of paired reduced space:   72)
 RSP solution vector no.    1; norm of residual   1.80D-04
 RSP solution vector no.    2; norm of residual   1.82D-04
 RSP solution vector no.    3; norm of residual   1.87D-04
 RSP solution vector no.    4; norm of residual   1.96D-04
 RSP solution vector no.    5; norm of residual   2.08D-04
 RSP solution vector no.    6; norm of residual   2.23D-04
 RSP solution vector no.    7; norm of residual   2.42D-04
 RSP solution vector no.    8; norm of residual   2.66D-04
 RSP solution vector no.    9; norm of residual   2.93D-04

 *** RSPCTL MICROITERATIONS CONVERGED


           Final output of second order properties from linear response
           ------------------------------------------------------------


@ Spin symmetry of operators: singlet

 Note that minus the linear response function: - << A; B >>(omega) is printed.
 The results are of quadratic accuracy using Sellers formula.

@ FREQUENCY INDEPENDENT SECOND ORDER PROPERTIES

@ -<< XDIPLEN  ; XDIPLEN  >> =  2.359766925263E+01

@ FREQUENCY DEPENDENT SECOND ORDER PROPERTIES WITH FREQUENCY :

@    a.u.:  1.3694563D-02
@    cm-1:  3.0056090D+03
@    eV  :  3.7264800D-01
@  kJ/mol:  3.5955068D+01
@    nm  :  3.3271127D+03

@ -<< XDIPLEN  ; XDIPLEN  >> =  2.362880238486E+01

@ FREQUENCY DEPENDENT SECOND ORDER PROPERTIES WITH FREQUENCY :

@    a.u.:  2.7389125D-02
@    cm-1:  6.0112181D+03
@    eV  :  7.4529600D-01
@  kJ/mol:  7.1910137D+01
@    nm  :  1.6635564D+03

@ -<< XDIPLEN  ; XDIPLEN  >> =  2.372303477738E+01

@ FREQUENCY DEPENDENT SECOND ORDER PROPERTIES WITH FREQUENCY :

@    a.u.:  4.1083688D-02
@    cm-1:  9.0168271D+03
@    eV  :  1.1179440D+00
@  kJ/mol:  1.0786520D+02
@    nm  :  1.1090376D+03

@ -<< XDIPLEN  ; XDIPLEN  >> =  2.388294034125E+01

@ FREQUENCY DEPENDENT SECOND ORDER PROPERTIES WITH FREQUENCY :

@    a.u.:  5.4778250D-02
@    cm-1:  1.2022436D+04
@    eV  :  1.4905920D+00
@  kJ/mol:  1.4382027D+02
@    nm  :  8.3177818D+02

@ -<< XDIPLEN  ; XDIPLEN  >> =  2.411307367786E+01

@ FREQUENCY DEPENDENT SECOND ORDER PROPERTIES WITH FREQUENCY :

@    a.u.:  6.8472813D-02
@    cm-1:  1.5028045D+04
@    eV  :  1.8632400D+00
@  kJ/mol:  1.7977534D+02
@    nm  :  6.6542254D+02

@ -<< XDIPLEN  ; XDIPLEN  >> =  2.442042514147E+01

@ FREQUENCY DEPENDENT SECOND ORDER PROPERTIES WITH FREQUENCY :

@    a.u.:  8.2167375D-02
@    cm-1:  1.8033654D+04
@    eV  :  2.2358880D+00
@  kJ/mol:  2.1573041D+02
@    nm  :  5.5451878D+02

@ -<< XDIPLEN  ; XDIPLEN  >> =  2.481519646641E+01

@ FREQUENCY DEPENDENT SECOND ORDER PROPERTIES WITH FREQUENCY :

@    a.u.:  9.5861937D-02
@    cm-1:  2.1039263D+04
@    eV  :  2.6085360D+00
@  kJ/mol:  2.5168548D+02
@    nm  :  4.7530182D+02

@ -<< XDIPLEN  ; XDIPLEN  >> =  2.531210263191E+01

@ FREQUENCY DEPENDENT SECOND ORDER PROPERTIES WITH FREQUENCY :

@    a.u.:  1.0955650D-01
@    cm-1:  2.4044872D+04
@    eV  :  2.9811840D+00
@  kJ/mol:  2.8764055D+02
@    nm  :  4.1588909D+02

@ -<< XDIPLEN  ; XDIPLEN  >> =  2.593261048571E+01


 Time used in linear response calculation is      0.25 CPU seconds for symmetry 2
 ----------------------------------------------------------------
 ----- Linear response calculation
 ----- Symmetry of excitation/property operator(s)    3  ( B2 )
 ----------------------------------------------------------------

 Number of excitations of this symmetry            0
 Number of response properties of this symmetry    1
 Number of C6/C8 properties of this symmetry       0


 Perturbation symmetry.     KSYMOP:           3
 Perturbation spin symmetry.TRPLET:           F
 Orbital variables.         KZWOPT:         142
 Configuration variables.   KZCONF:           0
 Total number of variables. KZVAR :         142


 RSPLR -- linear response calculation for symmetry 3  ( B2 )
 RSPLR -- operator label : YDIPLEN 
 RSPLR -- operator spin  :   0
 RSPLR -- frequencies    :     0.000000  0.013695  0.027389  0.041084  0.054778
                               0.068473  0.082167  0.095862  0.109557



 ---  SOLVING SETS OF LINEAR EQUATIONS FOR LINEAR RESPONSE PROPERTIES ---

 Operator symmetry = 3  ( B2 ); triplet =   F


 ** RSPCTL MICROITERATION NUMBER    1

       No.  Residual tot.,    conf., and orb.    Bnorm      Frequency 
      ----------------------------------------------------------------
         1    1.43776D+00  0.00D+00  1.44D+00  4.81D+00    0.00000D+00
         2    1.43893D+00  0.00D+00  1.44D+00  4.82D+00    1.36946D-02
         3    1.44248D+00  0.00D+00  1.44D+00  4.86D+00    2.73891D-02
         4    1.44850D+00  0.00D+00  1.45D+00  4.93D+00    4.10837D-02
         5    1.45714D+00  0.00D+00  1.46D+00  5.02D+00    5.47783D-02
         6    1.46865D+00  0.00D+00  1.47D+00  5.16D+00    6.84728D-02
         7    1.48337D+00  0.00D+00  1.48D+00  5.32D+00    8.21674D-02
         8    1.50181D+00  0.00D+00  1.50D+00  5.54D+00    9.58619D-02
         9    1.52471D+00  0.00D+00  1.52D+00  5.81D+00    1.09557D-01

 ** RSPCTL MICROITERATION NUMBER    2

       No.  Residual tot.,    conf., and orb.    Bnorm      Frequency 
      ----------------------------------------------------------------
         1    1.14775D-01  0.00D+00  1.15D-01  5.03D+00    0.00000D+00
         2    1.15346D-01  0.00D+00  1.15D-01  5.04D+00    1.36946D-02
         3    1.17080D-01  0.00D+00  1.17D-01  5.09D+00    2.73891D-02
         4    1.20040D-01  0.00D+00  1.20D-01  5.16D+00    4.10837D-02
         5    1.24340D-01  0.00D+00  1.24D-01  5.28D+00    5.47783D-02
         6    1.30155D-01  0.00D+00  1.30D-01  5.43D+00    6.84728D-02
         7    1.37749D-01  0.00D+00  1.38D-01  5.62D+00    8.21674D-02
         8    1.47510D-01  0.00D+00  1.48D-01  5.88D+00    9.58619D-02
         9    1.60023D-01  0.00D+00  1.60D-01  6.20D+00    1.09557D-01

 ** RSPCTL MICROITERATION NUMBER    3

       No.  Residual tot.,    conf., and orb.    Bnorm      Frequency 
      ----------------------------------------------------------------
         1    6.10779D-03  0.00D+00  6.11D-03  5.03D+00    0.00000D+00
         2    6.18425D-03  0.00D+00  6.18D-03  5.05D+00    1.36946D-02
         3    6.41461D-03  0.00D+00  6.41D-03  5.09D+00    2.73891D-02
         4    6.80255D-03  0.00D+00  6.80D-03  5.17D+00    4.10837D-02
         5    7.35614D-03  0.00D+00  7.36D-03  5.28D+00    5.47783D-02
         6    8.09045D-03  0.00D+00  8.09D-03  5.43D+00    6.84728D-02
         7    9.03102D-03  0.00D+00  9.03D-03  5.63D+00    8.21674D-02
         8    1.02187D-02  0.00D+00  1.02D-02  5.89D+00    9.58619D-02
         9    1.17173D-02  0.00D+00  1.17D-02  6.21D+00    1.09557D-01

 ** RSPCTL MICROITERATION NUMBER    4

       No.  Residual tot.,    conf., and orb.    Bnorm      Frequency 
      ----------------------------------------------------------------
         1    6.58515D-04  0.00D+00  6.59D-04  5.03D+00    0.00000D+00
         2    6.73490D-04  0.00D+00  6.73D-04  5.05D+00    1.36946D-02
         3    7.18429D-04  0.00D+00  7.18D-04  5.09D+00    2.73891D-02
         4    7.93719D-04  0.00D+00  7.94D-04  5.17D+00    4.10837D-02
         5    9.00913D-04  0.00D+00  9.01D-04  5.28D+00    5.47783D-02
         6    1.04361D-03  0.00D+00  1.04D-03  5.43D+00    6.84728D-02
         7    1.22837D-03  0.00D+00  1.23D-03  5.63D+00    8.21674D-02
         8    1.46579D-03  0.00D+00  1.47D-03  5.89D+00    9.58619D-02
         9    1.77243D-03  0.00D+00  1.77D-03  6.21D+00    1.09557D-01

 *** THE REQUESTED    9 SOLUTION VECTORS CONVERGED

 Convergence of RSP solution vectors, threshold = 1.00D-03
 ---------------------------------------------------------------
 (dimension of paired reduced space:   72)
 RSP solution vector no.    1; norm of residual   1.31D-04
 RSP solution vector no.    2; norm of residual   1.33D-04
 RSP solution vector no.    3; norm of residual   1.41D-04
 RSP solution vector no.    4; norm of residual   1.54D-04
 RSP solution vector no.    5; norm of residual   1.71D-04
 RSP solution vector no.    6; norm of residual   1.92D-04
 RSP solution vector no.    7; norm of residual   2.18D-04
 RSP solution vector no.    8; norm of residual   2.49D-04
 RSP solution vector no.    9; norm of residual   2.85D-04

 *** RSPCTL MICROITERATIONS CONVERGED


           Final output of second order properties from linear response
           ------------------------------------------------------------


@ Spin symmetry of operators: singlet

 Note that minus the linear response function: - << A; B >>(omega) is printed.
 The results are of quadratic accuracy using Sellers formula.

@ FREQUENCY INDEPENDENT SECOND ORDER PROPERTIES

@ -<< YDIPLEN  ; YDIPLEN  >> =  2.359766930352E+01

@ FREQUENCY DEPENDENT SECOND ORDER PROPERTIES WITH FREQUENCY :

@    a.u.:  1.3694563D-02
@    cm-1:  3.0056090D+03
@    eV  :  3.7264800D-01
@  kJ/mol:  3.5955068D+01
@    nm  :  3.3271127D+03

@ -<< YDIPLEN  ; YDIPLEN  >> =  2.362880243564E+01

@ FREQUENCY DEPENDENT SECOND ORDER PROPERTIES WITH FREQUENCY :

@    a.u.:  2.7389125D-02
@    cm-1:  6.0112181D+03
@    eV  :  7.4529600D-01
@  kJ/mol:  7.1910137D+01
@    nm  :  1.6635564D+03

@ -<< YDIPLEN  ; YDIPLEN  >> =  2.372303482772E+01

@ FREQUENCY DEPENDENT SECOND ORDER PROPERTIES WITH FREQUENCY :

@    a.u.:  4.1083688D-02
@    cm-1:  9.0168271D+03
@    eV  :  1.1179440D+00
@  kJ/mol:  1.0786520D+02
@    nm  :  1.1090376D+03

@ -<< YDIPLEN  ; YDIPLEN  >> =  2.388294039046E+01

@ FREQUENCY DEPENDENT SECOND ORDER PROPERTIES WITH FREQUENCY :

@    a.u.:  5.4778250D-02
@    cm-1:  1.2022436D+04
@    eV  :  1.4905920D+00
@  kJ/mol:  1.4382027D+02
@    nm  :  8.3177818D+02

@ -<< YDIPLEN  ; YDIPLEN  >> =  2.411307372462E+01

@ FREQUENCY DEPENDENT SECOND ORDER PROPERTIES WITH FREQUENCY :

@    a.u.:  6.8472813D-02
@    cm-1:  1.5028045D+04
@    eV  :  1.8632400D+00
@  kJ/mol:  1.7977534D+02
@    nm  :  6.6542254D+02

@ -<< YDIPLEN  ; YDIPLEN  >> =  2.442042518344E+01

@ FREQUENCY DEPENDENT SECOND ORDER PROPERTIES WITH FREQUENCY :

@    a.u.:  8.2167375D-02
@    cm-1:  1.8033654D+04
@    eV  :  2.2358880D+00
@  kJ/mol:  2.1573041D+02
@    nm  :  5.5451878D+02

@ -<< YDIPLEN  ; YDIPLEN  >> =  2.481519649981E+01

@ FREQUENCY DEPENDENT SECOND ORDER PROPERTIES WITH FREQUENCY :

@    a.u.:  9.5861937D-02
@    cm-1:  2.1039263D+04
@    eV  :  2.6085360D+00
@  kJ/mol:  2.5168548D+02
@    nm  :  4.7530182D+02

@ -<< YDIPLEN  ; YDIPLEN  >> =  2.531210265107E+01

@ FREQUENCY DEPENDENT SECOND ORDER PROPERTIES WITH FREQUENCY :

@    a.u.:  1.0955650D-01
@    cm-1:  2.4044872D+04
@    eV  :  2.9811840D+00
@  kJ/mol:  2.8764055D+02
@    nm  :  4.1588909D+02

@ -<< YDIPLEN  ; YDIPLEN  >> =  2.593261048320E+01


 Time used in linear response calculation is      0.24 CPU seconds for symmetry 3

  Total CPU  time used in RESPONSE:   0.77 seconds
  Total wall time used in RESPONSE:   0.79 seconds


                   .-------------------------------------------.
                   | End of Dynamic Property Section (RESPONS) |
                   `-------------------------------------------'

  Total CPU  time used in DALTON:   1.20 seconds
  Total wall time used in DALTON:   1.24 seconds

 
     Date and time (Linux)  : Wed Jan 11 14:14:49 2023
     Host name              : cn041                                   
