

     ************************************************************************
     *************** Dalton - An Electronic Structure Program ***************
     ************************************************************************

    This is output from DALTON release Dalton2020.0 (2020)
         ( Web site: http://daltonprogram.org )

   ----------------------------------------------------------------------------

    NOTE:
     
    Dalton is an experimental code for the evaluation of molecular
    properties using (MC)SCF, DFT, CI, and CC wave functions.
    The authors accept no responsibility for the performance of
    the code or for the correctness of the results.
     
    The code (in whole or part) is provided under a licence and
    is not to be reproduced for further distribution without
    the written permission of the authors or their representatives.
     
    See the home page "http://daltonprogram.org" for further information.
     
    If results obtained with this code are published,
    the appropriate citations would be both of:
     
       K. Aidas, C. Angeli, K. L. Bak, V. Bakken, R. Bast,
       L. Boman, O. Christiansen, R. Cimiraglia, S. Coriani,
       P. Dahle, E. K. Dalskov, U. Ekstroem,
       T. Enevoldsen, J. J. Eriksen, P. Ettenhuber, B. Fernandez,
       L. Ferrighi, H. Fliegl, L. Frediani, K. Hald, A. Halkier,
       C. Haettig, H. Heiberg, T. Helgaker, A. C. Hennum,
       H. Hettema, E. Hjertenaes, S. Hoest, I.-M. Hoeyvik,
       M. F. Iozzi, B. Jansik, H. J. Aa. Jensen, D. Jonsson,
       P. Joergensen, J. Kauczor, S. Kirpekar,
       T. Kjaergaard, W. Klopper, S. Knecht, R. Kobayashi, H. Koch,
       J. Kongsted, A. Krapp, K. Kristensen, A. Ligabue,
       O. B. Lutnaes, J. I. Melo, K. V. Mikkelsen, R. H. Myhre,
       C. Neiss, C. B. Nielsen, P. Norman, J. Olsen,
       J. M. H. Olsen, A. Osted, M. J. Packer, F. Pawlowski,
       T. B. Pedersen, P. F. Provasi, S. Reine, Z. Rinkevicius,
       T. A. Ruden, K. Ruud, V. Rybkin, P. Salek, C. C. M. Samson,
       A. Sanchez de Meras, T. Saue, S. P. A. Sauer,
       B. Schimmelpfennig, K. Sneskov, A. H. Steindal,
       K. O. Sylvester-Hvid, P. R. Taylor, A. M. Teale,
       E. I. Tellgren, D. P. Tew, A. J. Thorvaldsen, L. Thoegersen,
       O. Vahtras, M. A. Watson, D. J. D. Wilson, M. Ziolkowski
       and H. Agren,
       "The Dalton quantum chemistry program system",
       WIREs Comput. Mol. Sci. 2014, 4:269–284 (doi: 10.1002/wcms.1172)
     
    and
     
       Dalton, a molecular electronic structure program,
       Release Dalton2020.0 (2020), see http://daltonprogram.org
   ----------------------------------------------------------------------------

    Authors in alphabetical order (Major contribution(s) in parenthesis):

  Kestutis Aidas,           Vilnius University,           Lithuania   (QM/MM)
  Celestino Angeli,         University of Ferrara,        Italy       (NEVPT2)
  Keld L. Bak,              UNI-C,                        Denmark     (AOSOPPA, non-adiabatic coupling, magnetic properties)
  Vebjoern Bakken,          University of Oslo,           Norway      (DALTON; geometry optimizer, symmetry detection)
  Radovan Bast,             UiT The Arctic U. of Norway,  Norway      (DALTON installation and execution frameworks)
  Pablo Baudin,             University of Valencia,       Spain       (Cholesky excitation energies)
  Linus Boman,              NTNU,                         Norway      (Cholesky decomposition and subsystems)
  Bruno N. Cabral Tenorio,  Technical Univ. of Denmark,   Denmark     (Lanczos-based CC methods)
  Ove Christiansen,         Aarhus University,            Denmark     (CC module)
  Renzo Cimiraglia,         University of Ferrara,        Italy       (NEVPT2)
  Sonia Coriani,            Technical Univ. of Denmark,   Denmark     (CC and RESPONS modules)
  Janusz Cukras,            University of Warsaw,         Poland      (MChD in RESPONS)
  Paal Dahle,               University of Oslo,           Norway      (Parallelization)
  Erik K. Dalskov,          UNI-C,                        Denmark     (SOPPA)
  Thomas Enevoldsen,        Univ. of Southern Denmark,    Denmark     (SOPPA)
  Janus J. Eriksen,         Aarhus University,            Denmark     (Polarizable embedding, TDA)
  Rasmus Faber,             Technical Univ. of Denmark,   Denmark     (Vib.avg. NMR w. SOPPA, parallel AO-SOPPA, CVS-CC and EOMCC)
  Tobias Fahleson,          KTH Stockholm,                Sweden      (Damped cubic response)
  Berta Fernandez,          U. of Santiago de Compostela, Spain       (Doublet spin, ESR in RESPONS)
  Lara Ferrighi,            Aarhus University,            Denmark     (PCM Cubic response)
  Heike Fliegl,             University of Oslo,           Norway      (CCSD(R12))
  Luca Frediani,            UiT The Arctic U. of Norway,  Norway      (PCM)
  Emmanuel Fromager,        Univ. Strasbourg,             France      (MC-srDFT)
  Bin Gao,                  UiT The Arctic U. of Norway,  Norway      (Gen1Int library)
  Andre S. P. Gomes,        CNRS/Universite de Lille,     France      (Frozen density embedding)
  Christof Haettig,         Ruhr-University Bochum,       Germany     (CC module)
  Kasper Hald,              Aarhus University,            Denmark     (CC module)
  Asger Halkier,            Aarhus University,            Denmark     (CC module)
  Frederik Beyer Hansen,    University of Copenhagen,     Denmark     (Parallel AO-SOPPA)
  Erik D. Hedegaard,        Univ. of Southern Denmark,    Denmark     (Polarizable embedding, QM/MM, and MC-srDFT)
  Hanne Heiberg,            University of Oslo,           Norway      (Geometry analysis, selected one-electron integrals)
  Trygve Helgaker,          University of Oslo,           Norway      (DALTON; ABACUS, ERI, DFT modules, London, and much more)
  Alf Christian Hennum,     University of Oslo,           Norway      (Parity violation)
  Hinne Hettema,            University of Auckland,       New Zealand (Quadratic response in RESPONS; SIRIUS supersymmetry)
  Eirik Hjertenaes,         NTNU,                         Norway      (Cholesky decomposition)
  Pi A. B. Haase,           University of Copenhagen,     Denmark     (Triplet AO-SOPPA)
  Maria Francesca Iozzi,    University of Oslo,           Norway      (RPA)
  Christoph Jacob           TU Braunschweig               Germany     (Frozen density embedding)
  Brano Jansik              Technical Univ. of Ostrava    Czech Rep.  (DFT cubic response)
  Hans Joergen Aa. Jensen,  Univ. of Southern Denmark,    Denmark     (DALTON; SIRIUS, RESPONS, ABACUS, MC-srDFT, and much more)
  Dan Jonsson,              UiT The Arctic U. of Norway,  Norway      (Cubic response in RESPONS module)
  Poul Joergensen,          Aarhus University,            Denmark     (RESPONS, ABACUS, and CC modules)
  Maciej Kaminski,          University of Warsaw,         Poland      (CPPh in RESPONS)
  Joanna Kauczor,           Linkoeping University,        Sweden      (Complex polarization propagator (CPP) module)
  Sheela Kirpekar,          Univ. of Southern Denmark,    Denmark     (Mass-velocity & Darwin integrals)
  Erik Kjellgren,           Univ. of Southern Denmark,    Denmark     (MC-srDFT)
  Wim Klopper,              KIT Karlsruhe,                Germany     (R12 code in CC, SIRIUS, and ABACUS modules)
  Stefan Knecht,            ETH Zurich,                   Switzerland (Parallel CI and MCSCF, MC-srDFT)
  Rika Kobayashi,           Australian National Univ.,    Australia   (DIIS in CC, London in MCSCF)
  Henrik Koch,              NTNU,                         Norway      (CC module, Cholesky decomposition)
  Jacob Kongsted,           Univ. of Southern Denmark,    Denmark     (Polarizable embedding, polarizable density embedding, QM/MM)
  Andrea Ligabue,           University of Modena,         Italy       (CTOCD, AOSOPPA)
  Nanna H. List             Univ. of Southern Denmark,    Denmark     (Polarizable embedding)
  Ola B. Lutnaes,           University of Oslo,           Norway      (DFT Hessian)
  Juan I. Melo,             University of Buenos Aires,   Argentina   (LRESC, Relativistic Effects on NMR Shieldings)
  Kurt V. Mikkelsen,        University of Copenhagen,     Denmark     (MC-SCRF and QM/MM)
  Rolf H. Myhre,            NTNU,                         Norway      (Subsystems and CC3)
  Christian Neiss,          Univ. Erlangen-Nuernberg,     Germany     (CCSD(R12))
  Christian B. Nielsen,     University of Copenhagen,     Denmark     (QM/MM)
  Patrick Norman,           KTH Stockholm,                Sweden      (Cubic response and complex frequency response in RESPONS)
  Jeppe Olsen,              Aarhus University,            Denmark     (SIRIUS CI/density modules)
  Jogvan Magnus H. Olsen,   Aarhus University,            Denmark     (Polarizable embedding and polarizable density embedding)
  Anders Osted,             Copenhagen University,        Denmark     (QM/MM)
  Martin J. Packer,         University of Sheffield,      UK          (SOPPA)
  Filip Pawlowski,          Kazimierz Wielki University,  Poland      (CC3)
  Morten N. Pedersen,       Univ. of Southern Denmark,    Denmark     (Polarizable embedding)
  Thomas B. Pedersen,       University of Oslo,           Norway      (Cholesky decomposition)
  Patricio F. Provasi,      University of Northeastern,   Argentina   (Analysis of coupling constants in localized orbitals)
  Peter Reinholdt,          Univ. of Southern Denmark,    Denmark     (Polarizable embedding and polarizable density embedding)
  Zilvinas Rinkevicius,     KTH Stockholm,                Sweden      (open-shell DFT, ESR)
  Elias Rudberg,            KTH Stockholm,                Sweden      (DFT grid and basis info)
  Torgeir A. Ruden,         University of Oslo,           Norway      (Numerical derivatives in ABACUS)
  Kenneth Ruud,             UiT The Arctic U. of Norway,  Norway      (DALTON; ABACUS magnetic properties and much more)
  Pawel Salek,              KTH Stockholm,                Sweden      (DALTON; DFT code)
  Claire C. M. Samson       University of Karlsruhe       Germany     (Boys localization, r12 integrals in ERI)
  Alfredo Sanchez de Meras, University of Valencia,       Spain       (CC module, Cholesky decomposition)
  Trond Saue,               Paul Sabatier University,     France      (direct Fock matrix construction)
  Stephan P. A. Sauer,      University of Copenhagen,     Denmark     (SOPPA(CCSD), SOPPA prop., AOSOPPA, vibrational g-factors)
  Bernd Schimmelpfennig,    Forschungszentrum Karlsruhe,  Germany     (AMFI module)
  Anna K. Schnack-Petersen, University of Copenhagen,     Denmark     (RPA(D) and HRPA(D) properties in AOSOPPA)
  Kristian Sneskov,         Aarhus University,            Denmark     (Polarizable embedding, QM/MM)
  Arnfinn H. Steindal,      UiT The Arctic U. of Norway,  Norway      (parallel QM/MM, polarizable embedding)
  Casper Steinmann,         Aalborg University,           Denmark     (QFIT, polarizable embedding)
  K. O. Sylvester-Hvid,     University of Copenhagen,     Denmark     (MC-SCRF)
  Peter R. Taylor,          VLSCI/Univ. of Melbourne,     Australia   (Symmetry handling ABACUS, integral transformation)
  Andrew M. Teale,          University of Nottingham,     England     (DFT-AC, DFT-D)
  David P. Tew,             University of Bristol,        England     (CCSD(R12))
  Julien Toulouse,          Sorbonne Univ.,               France      (MC-srDFT)
  Olav Vahtras,             KTH Stockholm,                Sweden      (Triplet response, spin-orbit, ESR, TDDFT, open-shell DFT)
  Lucas Visscher,           Vrije Universiteit Amsterdam, Netherlands (Frozen density embedding)
  David J. Wilson,          La Trobe University,          Australia   (DFT Hessian and DFT magnetizabilities)
  Hans Agren,               KTH Stockholm,                Sweden      (SIRIUS module, RESPONS, MC-SCRF solvation)
 --------------------------------------------------------------------------------

     Date and time (Linux)  : Wed Jan 11 14:14:27 2023
     Host name              : cn041                                   

 * Work memory size             :    64000000 =  488.28 megabytes.

 * Directories for basis set searches:
   1) /gpfs/projects/rjh/adrian/fd_compare/dalton/hf/LiCl/dipole
   2) /gpfs/projects/rjh/adrian/dalton/build/basis


Compilation information
-----------------------

 Who compiled             | ahurtado
 Host                     | sn-mem
 System                   | Linux-3.10.0-1160.24.1.el7.x86_64
 CMake generator          | Unix Makefiles
 Processor                | x86_64
 64-bit integers          | OFF
 MPI                      | ON
 Fortran compiler         | /gpfs/software/intel/oneAPI/2021_4/mpi/2021.4.0/bi
                          | n/mpif90
 Fortran compiler version | GNU Fortran (GCC) 11.2.0
 C compiler               | /gpfs/software/intel/oneAPI/2021_4/mpi/2021.4.0/bi
                          | n/mpicc
 C compiler version       | gcc (GCC) 11.2.0
 C++ compiler             | /gpfs/software/intel/oneAPI/2021_4/mpi/2021.4.0/bi
                          | n/mpicxx
 C++ compiler version     | unknown
 BLAS                     | /gpfs/software/intel/oneAPI/2021_4/mkl/2021.4.0/li
                          | b/intel64/libmkl_gf_lp64.so;/gpfs/software/intel/o
                          | neAPI/2021_4/mkl/2021.4.0/lib/intel64/libmkl_seque
                          | ntial.so;/gpfs/software/intel/oneAPI/2021_4/mkl/20
                          | 21.4.0/lib/intel64/libmkl_core.so;/usr/lib64/libpt
                          | hread.so;/usr/lib64/libm.so
 LAPACK                   | /gpfs/software/intel/oneAPI/2021_4/mkl/2021.4.0/li
                          | b/intel64/libmkl_lapack95_lp64.a;/gpfs/software/in
                          | tel/oneAPI/2021_4/mkl/2021.4.0/lib/intel64/libmkl_
                          | gf_lp64.so
 Static linking           | OFF
 Last Git revision        | 66052b3af5ea7225e31178bf9a8b031913c72190
 Git branch               | (HEAD detached at Dalton2020.0)
 Configuration time       | 2023-01-11 13:33:37.731835

 * MPI parallel run using 20 processes.


   Content of the .dal input file
 ----------------------------------

**DALTON INPUT
.RUN RESPONSE
.DIRECT
**WAVE FUNCTIONS
.HF
**RESPONSE
*LINEAR
.DIPLEN
.FREQUENCIES
9
0.0 0.0136945625 0.027389125 0.0410836875 0.05477825 0.06847281250000001 0.082167375 0.0958619375 0.
**END OF DALTON INPUT


   Content of the .mol file
 ----------------------------

BASIS
aug-cc-pVQZ
blah
blah
Atomtype=2 Atomic
Charge=3 Atoms=1
Li_a 0.000000000000 0.000000000000 0.000000000000
Charge=17 Atoms=1
Cl_a 0.000000000000 0.000000000000 3.818500000000


       *******************************************************************
       *********** Output from DALTON general input processing ***********
       *******************************************************************

 --------------------------------------------------------------------------------
   Overall default print level:    0
   Print level for DALTON.STAT:    1

    Parallel calculation using MPI
    AO-direct calculation (in sections where implemented)
    HERMIT 1- and 2-electron integral sections will be executed
    "Old" integral transformation used (limited to max 255 basis functions)
    Wave function sections will be executed (SIRIUS module)
    Dynamic molecular response properties section will be executed (RESPONSE module)
 --------------------------------------------------------------------------------


   ****************************************************************************
   *************** Output of molecule and basis set information ***************
   ****************************************************************************


    The two title cards from your ".mol" input:
    ------------------------------------------------------------------------
 1: blah                                                                    
 2: blah                                                                    
    ------------------------------------------------------------------------

  Atomic type no.    1
  --------------------
  Nuclear charge:   3.00000
  Number of symmetry independent centers:    1
  Number of basis sets to read;    2
  Basis set file used for this atomic type with Z =   3 :
     "/gpfs/projects/rjh/adrian/dalton/build/basis/aug-cc-pVQZ"

  Atomic type no.    2
  --------------------
  Nuclear charge:  17.00000
  Number of symmetry independent centers:    1
  Number of basis sets to read;    2
  Basis set file used for this atomic type with Z =  17 :
     "/gpfs/projects/rjh/adrian/dalton/build/basis/aug-cc-pVQZ"


                      SYMADD: Requested addition of symmetry
                      --------------------------------------

 Symmetry test threshold:  5.00E-06

@   The molecule is centered at center of mass and rotated
@   so principal axes of inertia are along coordinate axes.

 Symmetry class found: C(oo,v)        

 Symmetry Independent Centres             
 ----------------------------
Cl_a  17 :      0.00000000     0.00000000     0.63810184  Isotope  1
Li_a   3 :      0.00000000     0.00000000    -3.18039816  Isotope  1

 The following symmetry elements were found:   X  Y     


                         SYMGRP: Point group information
                         -------------------------------

@    Full point group is: C(oo,v)        
@    Represented as:      C2v

@  * The irrep name for each symmetry:    1: A1     2: B1     3: B2     4: A2 

   * The point group was generated by:

      Reflection in the yz-plane
      Reflection in the xz-plane

   * Group multiplication table

        |  E   C2z  Oxz  Oyz
   -----+--------------------
     E  |  E   C2z  Oxz  Oyz
    C2z | C2z   E   Oyz  Oxz
    Oxz | Oxz  Oyz   E   C2z
    Oyz | Oyz  Oxz  C2z   E 

   * Character table

        |  E   C2z  Oxz  Oyz
   -----+--------------------
    A1  |   1    1    1    1
    B1  |   1   -1    1   -1
    B2  |   1   -1   -1    1
    A2  |   1    1   -1   -1

   * Direct product table

        | A1   B1   B2   A2 
   -----+--------------------
    A1  | A1   B1   B2   A2 
    B1  | B1   A1   A2   B2 
    B2  | B2   A2   A1   B1 
    A2  | A2   B2   B1   A1 


                                 Isotopic Masses
                                 ---------------

                           Li_a        7.016005
                           Cl_a       34.968853

                       Total mass:    41.984858 amu
                       Natural abundance:  70.087 %

 Center-of-mass coordinates (a.u.):    0.000000    0.000000    0.000000
 Center-of-mass coordinates (Angs):    0.000000    0.000000    0.000000


  Atoms and basis sets
  --------------------

  Number of atom types :    2
  Total number of atoms:    2

  Basis set used is "aug-cc-pVQZ" from the basis set library.

  label    atoms   charge   prim   cont     basis
  ----------------------------------------------------------------------
  Li          1    3.0000    93    80      [13s7p4d3f2g|6s5p4d3f2g]                           
  Cl          1   17.0000   112    84      [17s12p4d3f2g|7s6p4d3f2g]                          
  ----------------------------------------------------------------------
  total:      2   20.0000   205   164
  ----------------------------------------------------------------------
  Spherical harmonic basis used.

  Threshold for neglecting AO integrals:  1.00D-12


  Cartesian Coordinates (a.u.)
  ----------------------------

  Total number of coordinates:    6
  Li_a    :     1  x   0.0000000000    2  y   0.0000000000    3  z  -3.1803981612
  Cl_a    :     4  x   0.0000000000    5  y   0.0000000000    6  z   0.6381018388


  Symmetry Coordinates
  --------------------

  Number of coordinates in each symmetry:     2    2    2    0

  Symmetry  A1  ( 1)

    1   Li_a  z    3
    2   Cl_a  z    6

  Symmetry  B1  ( 2)

    3   Li_a  x    1
    4   Cl_a  x    4

  Symmetry  B2  ( 3)

    5   Li_a  y    2
    6   Cl_a  y    5


   Interatomic separations (in Angstrom):
   --------------------------------------

            Li_a        Cl_a  
            ------      ------
 Li_a  :    0.000000
 Cl_a  :    2.020663    0.000000


  Max    interatomic separation is    2.0207 Angstrom (    3.8185 Bohr)
  between atoms    2 and    1, "Cl_a  " and "Li_a  ".

  Min YX interatomic separation is    2.0207 Angstrom (    3.8185 Bohr)


  Bond distances (Angstrom):
  --------------------------

                  atom 1     atom 2       distance
                  ------     ------       --------
  bond distance:  Cl_a       Li_a         2.020663




 Principal moments of inertia (u*A**2) and principal axes
 --------------------------------------------------------

   IA       0.000000          0.000000    0.000000    1.000000
   IB      23.859781          0.000000    1.000000    0.000000
   IC      23.859781          1.000000    0.000000    0.000000


 Rotational constants
 --------------------

@    The molecule is linear.

               B =        21181.21 MHz     (    0.706529 cm-1)


@  Nuclear repulsion energy :   13.356029854655 Hartree


  Symmetry Orbitals
  -----------------

  Number of orbitals in each symmetry:          64   39   39   22


  Symmetry  A1 ( 1)

    1     Li_a     1s         1
    2     Li_a     1s         2
    3     Li_a     1s         3
    4     Li_a     1s         4
    5     Li_a     1s         5
    6     Li_a     1s         6
    7     Li_a     2pz        9
    8     Li_a     2pz       12
    9     Li_a     2pz       15
   10     Li_a     2pz       18
   11     Li_a     2pz       21
   12     Li_a     3d0       24
   13     Li_a     3d2+      26
   14     Li_a     3d0       29
   15     Li_a     3d2+      31
   16     Li_a     3d0       34
   17     Li_a     3d2+      36
   18     Li_a     3d0       39
   19     Li_a     3d2+      41
   20     Li_a     4f0       45
   21     Li_a     4f2+      47
   22     Li_a     4f0       52
   23     Li_a     4f2+      54
   24     Li_a     4f0       59
   25     Li_a     4f2+      61
   26     Li_a     5g0       67
   27     Li_a     5g2+      69
   28     Li_a     5g4+      71
   29     Li_a     5g0       76
   30     Li_a     5g2+      78
   31     Li_a     5g4+      80
   32     Cl_a     1s        81
   33     Cl_a     1s        82
   34     Cl_a     1s        83
   35     Cl_a     1s        84
   36     Cl_a     1s        85
   37     Cl_a     1s        86
   38     Cl_a     1s        87
   39     Cl_a     2pz       90
   40     Cl_a     2pz       93
   41     Cl_a     2pz       96
   42     Cl_a     2pz       99
   43     Cl_a     2pz      102
   44     Cl_a     2pz      105
   45     Cl_a     3d0      108
   46     Cl_a     3d2+     110
   47     Cl_a     3d0      113
   48     Cl_a     3d2+     115
   49     Cl_a     3d0      118
   50     Cl_a     3d2+     120
   51     Cl_a     3d0      123
   52     Cl_a     3d2+     125
   53     Cl_a     4f0      129
   54     Cl_a     4f2+     131
   55     Cl_a     4f0      136
   56     Cl_a     4f2+     138
   57     Cl_a     4f0      143
   58     Cl_a     4f2+     145
   59     Cl_a     5g0      151
   60     Cl_a     5g2+     153
   61     Cl_a     5g4+     155
   62     Cl_a     5g0      160
   63     Cl_a     5g2+     162
   64     Cl_a     5g4+     164


  Symmetry  B1 ( 2)

   65     Li_a     2px        7
   66     Li_a     2px       10
   67     Li_a     2px       13
   68     Li_a     2px       16
   69     Li_a     2px       19
   70     Li_a     3d1+      25
   71     Li_a     3d1+      30
   72     Li_a     3d1+      35
   73     Li_a     3d1+      40
   74     Li_a     4f1+      46
   75     Li_a     4f3+      48
   76     Li_a     4f1+      53
   77     Li_a     4f3+      55
   78     Li_a     4f1+      60
   79     Li_a     4f3+      62
   80     Li_a     5g1+      68
   81     Li_a     5g3+      70
   82     Li_a     5g1+      77
   83     Li_a     5g3+      79
   84     Cl_a     2px       88
   85     Cl_a     2px       91
   86     Cl_a     2px       94
   87     Cl_a     2px       97
   88     Cl_a     2px      100
   89     Cl_a     2px      103
   90     Cl_a     3d1+     109
   91     Cl_a     3d1+     114
   92     Cl_a     3d1+     119
   93     Cl_a     3d1+     124
   94     Cl_a     4f1+     130
   95     Cl_a     4f3+     132
   96     Cl_a     4f1+     137
   97     Cl_a     4f3+     139
   98     Cl_a     4f1+     144
   99     Cl_a     4f3+     146
  100     Cl_a     5g1+     152
  101     Cl_a     5g3+     154
  102     Cl_a     5g1+     161
  103     Cl_a     5g3+     163


  Symmetry  B2 ( 3)

  104     Li_a     2py        8
  105     Li_a     2py       11
  106     Li_a     2py       14
  107     Li_a     2py       17
  108     Li_a     2py       20
  109     Li_a     3d1-      23
  110     Li_a     3d1-      28
  111     Li_a     3d1-      33
  112     Li_a     3d1-      38
  113     Li_a     4f3-      42
  114     Li_a     4f1-      44
  115     Li_a     4f3-      49
  116     Li_a     4f1-      51
  117     Li_a     4f3-      56
  118     Li_a     4f1-      58
  119     Li_a     5g3-      64
  120     Li_a     5g1-      66
  121     Li_a     5g3-      73
  122     Li_a     5g1-      75
  123     Cl_a     2py       89
  124     Cl_a     2py       92
  125     Cl_a     2py       95
  126     Cl_a     2py       98
  127     Cl_a     2py      101
  128     Cl_a     2py      104
  129     Cl_a     3d1-     107
  130     Cl_a     3d1-     112
  131     Cl_a     3d1-     117
  132     Cl_a     3d1-     122
  133     Cl_a     4f3-     126
  134     Cl_a     4f1-     128
  135     Cl_a     4f3-     133
  136     Cl_a     4f1-     135
  137     Cl_a     4f3-     140
  138     Cl_a     4f1-     142
  139     Cl_a     5g3-     148
  140     Cl_a     5g1-     150
  141     Cl_a     5g3-     157
  142     Cl_a     5g1-     159


  Symmetry  A2 ( 4)

  143     Li_a     3d2-      22
  144     Li_a     3d2-      27
  145     Li_a     3d2-      32
  146     Li_a     3d2-      37
  147     Li_a     4f2-      43
  148     Li_a     4f2-      50
  149     Li_a     4f2-      57
  150     Li_a     5g4-      63
  151     Li_a     5g2-      65
  152     Li_a     5g4-      72
  153     Li_a     5g2-      74
  154     Cl_a     3d2-     106
  155     Cl_a     3d2-     111
  156     Cl_a     3d2-     116
  157     Cl_a     3d2-     121
  158     Cl_a     4f2-     127
  159     Cl_a     4f2-     134
  160     Cl_a     4f2-     141
  161     Cl_a     5g4-     147
  162     Cl_a     5g2-     149
  163     Cl_a     5g4-     156
  164     Cl_a     5g2-     158

  Symmetries of electric field:  B1 (2)  B2 (3)  A1 (1)

  Symmetries of magnetic field:  B2 (3)  B1 (2)  A2 (4)


                     .---------------------------------------.
                     | Starting in Integral Section (HERMIT) |
                     `---------------------------------------'



 ***************************************************************************************
 ****************** Output from **INTEGRALS input processing (HERMIT) ******************
 ***************************************************************************************


 - Using defaults, no **INTEGRALS input found

 Default print level:        1

 Calculation of one-electron Hamiltonian integrals.

 Center of mass  (bohr):      0.000000000000      0.000000000000      0.000000000000
 Operator center (bohr):      0.000000000000      0.000000000000      0.000000000000
 Gauge origin    (bohr):      0.000000000000      0.000000000000      0.000000000000
 Dipole origin   (bohr):      0.000000000000      0.000000000000      0.000000000000


     ************************************************************************
     ************************** Output from HERINT **************************
     ************************************************************************



                      Nuclear contribution to dipole moments
                      --------------------------------------

                 au               Debye          C m (/(10**-30)

      z      1.30653678         3.32088503        11.07728009


  Time used in GABGEN     is       0.20 seconds
  Total CPU  time used in HERMIT:   0.40 seconds
  Total wall time used in HERMIT:   0.41 seconds


                        .----------------------------------.
                        | End of Integral Section (HERMIT) |
                        `----------------------------------'



                   .--------------------------------------------.
                   | Starting in Wave Function Section (SIRIUS) |
                   `--------------------------------------------'


 *** Output from Huckel module :

     Using EWMO model:          T
     Using EHT  model:          F
     Number of Huckel orbitals each symmetry:   10    4    4    1

 EWMO - Energy Weighted Maximum Overlap - is a Huckel type method,
        which normally is better than Extended Huckel Theory.
 Reference: Linderberg and Ohrn, Propagators in Quantum Chemistry (Wiley, 1973)

 Huckel EWMO eigenvalues for symmetry :  1
         -104.883964     -10.609452      -8.072241      -2.486708      -1.123908
           -0.513960      -0.171611      -0.085660      -0.055556      -0.054851

 Huckel EWMO eigenvalues for symmetry :  2
           -8.072216      -0.518935      -0.119286      -0.053719

 Huckel EWMO eigenvalues for symmetry :  3
           -8.072216      -0.518935      -0.119286      -0.053719

 Huckel EWMO eigenvalues for symmetry :  4
           -0.055556

 **********************************************************************
 *SIRIUS* a direct, restricted step, second order MCSCF program       *
 **********************************************************************

 
     Date and time (Linux)  : Wed Jan 11 14:14:28 2023
     Host name              : cn041                                   

 Title lines from ".mol" input file:
     blah                                                                    
     blah                                                                    

 Print level on unit LUPRI =   2 is   0
 Print level on unit LUW4  =   2 is   5

@    Restricted, closed shell Hartree-Fock calculation.

@    Time-dependent Hartree-Fock calculation (random phase approximation).
 Fock matrices are calculated directly and in parallel without use of integrals on disk.

 Initial molecular orbitals are obtained according to
 ".MOSTART EWMO  " input option

     Wave function specification
     ============================
@    Wave function type        --- HF ---
@    Number of closed shell electrons          20
@    Number of electrons in active shells       0
@    Total charge of the molecule               0

@    Spin multiplicity and 2 M_S                1         0
@    Total number of symmetries                 4 (point group: C2v)
@    Reference state symmetry                   1 (irrep name : A1 )

     Orbital specifications
     ======================
@    Abelian symmetry species          All |    1    2    3    4
@                                          |  A1   B1   B2   A2 
                                       --- |  ---  ---  ---  ---
@    Total number of orbitals          164 |   64   39   39   22
@    Number of basis functions         164 |   64   39   39   22

      ** Automatic occupation of RHF orbitals **

      -- Initial occupation of symmetries is determined from extended Huckel guess.           
      -- Initial occupation of symmetries is :
@    Occupied SCF orbitals              10 |    6    2    2    0

     Maximum number of Fock   iterations      0
     Maximum number of DIIS   iterations     60
     Maximum number of QC-SCF iterations     60
     Threshold for SCF convergence     1.00D-05


 ***********************************************
 ***** DIIS acceleration of SCF iterations *****
 ***********************************************

 C1-DIIS algorithm; max error vectors =    8

 Automatic occupation of symmetries with  20 electrons.

 Iter     Total energy    Error norm  Delta(E)    SCF occupation
 -----------------------------------------------------------------------------
   1  Screening settings (-IFTHRS, JTDIIS, DIFDEN, times)   -7    1    T  4.37D-01  4.37D-01
@  1  -467.008566764       7.75D-01  -4.67D+02     6   2   2   0
      Virial theorem: -V/T =      1.997212
@    MULPOP   Li_a    0.85; Cl_a   -0.85; 
   1  Level shift: doubly occupied orbital energies shifted by -2.00D-01
 -----------------------------------------------------------------------------
   2  Screening settings (-IFTHRS, JTDIIS, DIFDEN, times)   -7    2    T  4.00D-01  4.00D-01
@  2  -467.050910939       2.15D-01  -4.23D-02     6   2   2   0
      Virial theorem: -V/T =      2.000692
@    MULPOP   Li_a    0.57; Cl_a   -0.57; 
   2  Level shift: doubly occupied orbital energies shifted by -1.00D-01
 -----------------------------------------------------------------------------
   3  Screening settings (-IFTHRS, JTDIIS, DIFDEN, times)  -11    3    F  3.97D-01  3.97D-01
@  3  -467.054575749       5.62D-02  -3.66D-03     6   2   2   0
      Virial theorem: -V/T =      1.999854
@    MULPOP   Li_a    0.59; Cl_a   -0.59; 
   3  Level shift: doubly occupied orbital energies shifted by -5.00D-02
 -----------------------------------------------------------------------------
   4  Screening settings (-IFTHRS, JTDIIS, DIFDEN, times)  -11    4    T  3.91D-01  3.92D-01
@  4  -467.055265658       1.68D-02  -6.90D-04     6   2   2   0
      Virial theorem: -V/T =      1.999954
@    MULPOP   Li_a    0.59; Cl_a   -0.59; 
   4  Level shift: doubly occupied orbital energies shifted by -2.50D-02
 -----------------------------------------------------------------------------
   5  Screening settings (-IFTHRS, JTDIIS, DIFDEN, times)  -11    5    T  3.97D-01  3.96D-01
@  5  -467.055357917       5.16D-03  -9.23D-05     6   2   2   0
      Virial theorem: -V/T =      1.999941
@    MULPOP   Li_a    0.59; Cl_a   -0.59; 
   5  Level shift: doubly occupied orbital energies shifted by -1.25D-02
 -----------------------------------------------------------------------------
   6  Screening settings (-IFTHRS, JTDIIS, DIFDEN, times)  -11    6    T  4.01D-01  4.01D-01
@  6  -467.055367021       1.25D-03  -9.10D-06     6   2   2   0
      Virial theorem: -V/T =      1.999953
@    MULPOP   Li_a    0.60; Cl_a   -0.60; 
 -----------------------------------------------------------------------------
   7  Screening settings (-IFTHRS, JTDIIS, DIFDEN, times)  -11    7    T  3.96D-01  3.96D-01
@  7  -467.055367530       2.40D-04  -5.09D-07     6   2   2   0
      Virial theorem: -V/T =      1.999951
@    MULPOP   Li_a    0.60; Cl_a   -0.60; 
 -----------------------------------------------------------------------------
   8  Screening settings (-IFTHRS, JTDIIS, DIFDEN, times)  -11    8    T  3.99D-01  3.99D-01
@  8  -467.055367540       5.48D-05  -1.02D-08     6   2   2   0
      Virial theorem: -V/T =      1.999952
@    MULPOP   Li_a    0.60; Cl_a   -0.60; 
 -----------------------------------------------------------------------------
   9  Screening settings (-IFTHRS, JTDIIS, DIFDEN, times)  -11    9    T  3.87D-01  3.87D-01
@  9  -467.055367540       7.41D-06  -5.61D-10     6   2   2   0

@ *** DIIS converged in   9 iterations !
@     Converged SCF energy, gradient:   -467.055367540390    7.41D-06
    - total time used in SIRFCK :              0.00 seconds


 *** SCF orbital energy analysis ***

 Only the 20 lowest virtual orbital energies printed in each symmetry.

 Number of electrons :   20
 Orbital occupations :    6    2    2    0

 Sym       Hartree-Fock orbital energies

1 A1   -104.72833265   -10.45497014    -7.92144399    -2.47902150    -0.97288303
         -0.40799612    -0.01535091     0.01468454     0.02243025     0.05606463
          0.07516118     0.08510691     0.09110898     0.14152877     0.16918281
          0.20659332     0.22554758     0.24133363     0.26065012     0.30410414
          0.36990048     0.40491691     0.42774389     0.49248383     0.51793617
          0.55384820

2 B1     -7.92117609    -0.38012002     0.01274937     0.04244856     0.08031828
          0.12145290     0.15901325     0.21114064     0.22285630     0.28912526
          0.31292760     0.43901196     0.51753978     0.57458495     0.60256652
          0.60623148     0.65565479     0.71769137     0.96341953     0.99222978
          1.19554000     1.34756262

3 B2     -7.92117609    -0.38012002     0.01274937     0.04244856     0.08031828
          0.12145290     0.15901325     0.21114064     0.22285630     0.28912526
          0.31292760     0.43901196     0.51753978     0.57458495     0.60256652
          0.60623148     0.65565479     0.71769137     0.96341953     0.99222978
          1.19554000     1.34756262

4 A2      0.07516118     0.20659332     0.24133363     0.40491691     0.51793617
          0.55384820     0.62104811     0.62629241     0.85557651     1.19244710
          1.40868372     1.44721941     1.53701915     1.59518335     1.93683926
          1.95039289     2.39034364     2.48513511     4.48604943     4.81289098

    E(LUMO) :    -0.01535091 au (symmetry 1)
  - E(HOMO) :    -0.38012002 au (symmetry 2)
  ------------------------------------------
    gap     :     0.36476911 au

 --- Writing SIRIFC interface file

 CPU and wall time for SCF :       3.649       3.656


                       .-----------------------------------.
                       | --- Final results from SIRIUS --- |
                       `-----------------------------------'


@    Spin multiplicity:           1
@    Spatial symmetry:            1 ( irrep  A1  in C2v )
@    Total charge of molecule:    0

@    Final HF energy:            -467.055367540390                 
@    Nuclear repulsion:            13.356029854655
@    Electronic energy:          -480.411397395045

@    Final gradient norm:           0.000007405906

 
     Date and time (Linux)  : Wed Jan 11 14:14:31 2023
     Host name              : cn041                                   

File label for MO orbitals:  11Jan23   FOCKDIIS

 (Only coefficients > 0.0100 are printed.)

 Molecular orbitals for symmetry species 1  (A1 )
 ------------------------------------------------

    Orbital         1        2        3        4        5        6        7
   1 Li_a:1s    -0.0000   0.0001   0.0003  -0.9957  -0.0203  -0.0174   0.0032
   2 Li_a:1s    -0.0001   0.0002   0.0004   0.0007   0.0405   0.1247  -0.1038
   3 Li_a:1s     0.0005  -0.0040   0.0022   0.0240   0.0463   0.1283  -0.0202
   4 Li_a:1s     0.0001  -0.0008   0.0017  -0.0083  -0.0013   0.0391  -0.3699
   5 Li_a:1s     0.0000   0.0000   0.0002   0.0014   0.0043   0.0078  -0.4226
   6 Li_a:1s    -0.0000   0.0000  -0.0000  -0.0003  -0.0006  -0.0008  -0.4231
   7 Li_a:2pz    0.0000  -0.0001   0.0000   0.0133   0.0177   0.0542   0.0277
   8 Li_a:2pz    0.0002  -0.0020   0.0022   0.0122   0.0383   0.1165   0.0577
   9 Li_a:2pz    0.0000  -0.0003   0.0011  -0.0059   0.0035   0.0255  -0.0088
  10 Li_a:2pz   -0.0000   0.0002  -0.0001   0.0008   0.0011   0.0012   0.2010
  11 Li_a:2pz    0.0000  -0.0000   0.0000  -0.0003  -0.0004  -0.0003   0.1892
  14 Li_a:3d0   -0.0000  -0.0001   0.0008   0.0037   0.0158   0.0341  -0.0049
  16 Li_a:3d0   -0.0000   0.0000   0.0006  -0.0044   0.0042   0.0161  -0.0655
  18 Li_a:3d0   -0.0000   0.0001   0.0000  -0.0005   0.0003   0.0010  -0.0890
  24 Li_a:4f0   -0.0000   0.0001   0.0001  -0.0015   0.0004   0.0031  -0.0185
  32 Cl_a:1s     1.0000  -0.0000   0.0001   0.0000   0.0001  -0.0000   0.0001
  33 Cl_a:1s    -0.0002   1.0000   0.0017   0.0005  -0.0027  -0.0025   0.0013
  34 Cl_a:1s    -0.0004   0.0010   0.0005  -0.0057   0.9607  -0.0911   0.0399
  36 Cl_a:1s     0.0007  -0.0043   0.0003   0.0053  -0.0210  -0.0067  -0.0050
  37 Cl_a:1s    -0.0003   0.0035  -0.0034  -0.0135   0.0077  -0.0952   0.0378
  38 Cl_a:1s    -0.0003   0.0022  -0.0021  -0.0061   0.0051  -0.0428   0.3299
  39 Cl_a:2pz    0.0000  -0.0017   1.0007   0.0017   0.0039   0.0068  -0.0001
  40 Cl_a:2pz    0.0002  -0.0026   0.0013   0.0134  -0.0210  -0.8981  -0.0578
  42 Cl_a:2pz   -0.0002   0.0019  -0.0005   0.0021   0.0014   0.0139   0.0011
  43 Cl_a:2pz    0.0004  -0.0029   0.0009   0.0147   0.0025  -0.0082  -0.0471
  44 Cl_a:2pz    0.0001  -0.0006   0.0002   0.0020   0.0000  -0.0151  -0.0591
  49 Cl_a:3d0   -0.0000   0.0003  -0.0006  -0.0077   0.0044   0.0141   0.0054

    Orbital         8        9       10       11       12       13       14
   1 Li_a:1s    -0.0037  -0.0243   0.0086   0.0000  -0.0060  -0.0708   0.0874
   2 Li_a:1s     0.0804  -0.0486  -0.0462   0.0000  -0.1196  -0.0581   0.2312
   3 Li_a:1s    -0.0531  -0.4840  -1.4628   0.0000   0.2610  -0.6847   1.3353
   4 Li_a:1s     0.4394  -1.5187   4.3791  -0.0000   0.7878  -6.2561  14.4530
   5 Li_a:1s     1.6070  -1.7968   0.4286  -0.0000   1.5439  -5.0623  -2.0260
   6 Li_a:1s    -1.1818   1.2707   0.1773   0.0000  -0.7418   0.9863  -0.0631
   7 Li_a:2pz   -0.0152   0.0030  -0.0052  -0.0000   0.0461  -0.0285  -0.0372
   8 Li_a:2pz   -0.1490  -0.4232  -0.0388   0.0000   0.0336  -1.2320   2.2575
   9 Li_a:2pz    0.6649  -1.3100   4.1811  -0.0000   2.1796  -6.4569   5.8890
  10 Li_a:2pz   -0.8617  -0.4559  -1.8386  -0.0000  -2.7175  -0.7434  -2.6839
  11 Li_a:2pz    1.0953   1.0107   1.0801   0.0000   0.8329   0.4064   0.3125
  12 Li_a:3d0    0.0089  -0.0194  -0.0001   0.0000   0.0204  -0.0539   0.0207
  13 Li_a:3d2+  -0.0000  -0.0000   0.0000   0.0330  -0.0000   0.0000   0.0000
  14 Li_a:3d0   -0.0623  -0.0705   0.0496   0.0000  -0.1570  -0.1585   0.5901
  15 Li_a:3d2+   0.0000   0.0000  -0.0000  -0.1574   0.0000  -0.0000  -0.0000
  16 Li_a:3d0    0.2820  -0.3445   1.1593  -0.0000   0.5573  -1.5932   1.2281
  17 Li_a:3d2+  -0.0000  -0.0000   0.0000   0.3764  -0.0000   0.0000   0.0000
  18 Li_a:3d0   -0.0422  -0.4119   1.2096  -0.0000  -1.2651  -1.3983  -1.1690
  19 Li_a:3d2+  -0.0000   0.0000   0.0000  -1.1883   0.0000  -0.0000  -0.0000
  20 Li_a:4f0   -0.0171  -0.0201  -0.0144   0.0000  -0.0478  -0.0434   0.0694
  21 Li_a:4f2+   0.0000   0.0000  -0.0000   0.0113   0.0000  -0.0000  -0.0000
  22 Li_a:4f0    0.0335   0.0066   0.1878   0.0000   0.0955  -0.0696   0.1987
  23 Li_a:4f2+   0.0000   0.0000  -0.0000  -0.0414   0.0000  -0.0000   0.0000
  24 Li_a:4f0    0.0504  -0.1041   0.3910  -0.0000  -0.0146  -0.5539   0.0521
  25 Li_a:4f2+  -0.0000  -0.0000   0.0000   0.1347   0.0000  -0.0000  -0.0000
  26 Li_a:5g0   -0.0057  -0.0012   0.0003   0.0000  -0.0105   0.0005   0.0385
  29 Li_a:5g0    0.0202   0.0024   0.1085  -0.0000   0.0332  -0.0519  -0.0099
  33 Cl_a:1s    -0.0051   0.0013  -0.0063   0.0000  -0.0172   0.0126  -0.0351
  34 Cl_a:1s    -0.0405  -0.0218   0.0437   0.0000   0.0006   0.1216  -0.1173
  35 Cl_a:1s    -0.0084   0.0074  -0.0142  -0.0000  -0.0295   0.0337  -0.0674
  36 Cl_a:1s     0.0333  -0.0710   0.1114   0.0000   0.1453  -0.2416   0.4720
  37 Cl_a:1s    -0.1189   0.2385  -1.1283  -0.0000  -0.2829   1.2291  -1.9340
  38 Cl_a:1s    -0.8694   3.1294  -4.5854   0.0000  -1.4192  12.1522 -11.1411
  39 Cl_a:2pz   -0.0016  -0.0015   0.0179   0.0000  -0.0029  -0.0094   0.0370
  40 Cl_a:2pz    0.0343  -0.0155   0.0012   0.0000  -0.0134   0.0195   0.1116
  41 Cl_a:2pz    0.0050   0.0040  -0.0433  -0.0000   0.0102   0.0256  -0.0902
  42 Cl_a:2pz   -0.0202   0.0048   0.0620  -0.0000  -0.0578   0.0007   0.1032
  43 Cl_a:2pz    0.0179  -0.6243   0.1070  -0.0000   0.1533  -1.8494   2.7105
  44 Cl_a:2pz    0.2654  -0.5799   0.2328   0.0000   1.8178  -1.7301   6.0864
  47 Cl_a:3d0    0.0018  -0.0122   0.0057   0.0000  -0.0001  -0.0377   0.0161
  49 Cl_a:3d0    0.0052   0.0629  -0.0254  -0.0000   0.0357   0.1957  -0.1619
  51 Cl_a:3d0    0.0298   0.1425   0.3101  -0.0000  -0.1357   0.2384  -1.0269
  52 Cl_a:3d2+   0.0000  -0.0000  -0.0000  -0.0136  -0.0000   0.0000   0.0000
  55 Cl_a:4f0   -0.0022   0.0005   0.0142   0.0000  -0.0152  -0.0044  -0.0043
  57 Cl_a:4f0    0.0054  -0.0292  -0.0380  -0.0000   0.0355  -0.0673   0.1189
  62 Cl_a:5g0   -0.0022   0.0045  -0.0004   0.0000  -0.0072   0.0139  -0.0185

    Orbital        15       16
   1 Li_a:1s     0.0396   0.0000
   2 Li_a:1s    -0.0204   0.0000
   3 Li_a:1s     5.8402   0.0000
   4 Li_a:1s    -8.2892  -0.0000
   5 Li_a:1s    -0.6680   0.0000
   6 Li_a:1s    -0.2752   0.0000
   7 Li_a:2pz    0.0553   0.0000
   8 Li_a:2pz    1.7151  -0.0000
   9 Li_a:2pz   -8.4033  -0.0000
  10 Li_a:2pz    0.8694  -0.0000
  11 Li_a:2pz   -0.5514  -0.0000
  12 Li_a:3d0    0.0530   0.0000
  13 Li_a:3d2+  -0.0000   0.0381
  14 Li_a:3d0    0.1782  -0.0000
  15 Li_a:3d2+   0.0000  -0.1485
  16 Li_a:3d0   -2.4344  -0.0000
  17 Li_a:3d2+  -0.0000   0.3469
  18 Li_a:3d0   -1.8933  -0.0000
  19 Li_a:3d2+   0.0000  -0.3780
  20 Li_a:4f0    0.0645   0.0000
  21 Li_a:4f2+   0.0000  -0.1134
  22 Li_a:4f0   -0.4423  -0.0000
  23 Li_a:4f2+   0.0000   0.3345
  24 Li_a:4f0   -1.4257  -0.0000
  25 Li_a:4f2+   0.0000  -1.3082
  26 Li_a:5g0    0.0132  -0.0000
  27 Li_a:5g2+   0.0000   0.0115
  29 Li_a:5g0   -0.3432  -0.0000
  30 Li_a:5g2+   0.0000  -0.0390
  33 Cl_a:1s     0.0170  -0.0000
  34 Cl_a:1s     0.1322  -0.0000
  35 Cl_a:1s     0.0240  -0.0000
  36 Cl_a:1s    -0.1181   0.0000
  37 Cl_a:1s     2.6769   0.0000
  38 Cl_a:1s     6.0292   0.0000
  39 Cl_a:2pz   -0.0465   0.0000
  40 Cl_a:2pz   -0.3292   0.0000
  41 Cl_a:2pz    0.1040  -0.0000
  42 Cl_a:2pz   -0.1692  -0.0000
  43 Cl_a:2pz    1.4321  -0.0000
  44 Cl_a:2pz    2.0614  -0.0000
  46 Cl_a:3d2+  -0.0000  -0.0126
  47 Cl_a:3d0    0.0169  -0.0000
  48 Cl_a:3d2+   0.0000   0.0163
  49 Cl_a:3d0   -0.0518   0.0000
  50 Cl_a:3d2+  -0.0000  -0.1101
  51 Cl_a:3d0   -1.4977   0.0000
  52 Cl_a:3d2+  -0.0000   0.3728
  55 Cl_a:4f0   -0.0513   0.0000
  57 Cl_a:4f0    0.1950  -0.0000
  62 Cl_a:5g0   -0.0111   0.0000

 Molecular orbitals for symmetry species 2  (B1 )
 ------------------------------------------------

    Orbital         1        2        3        4        5        6        7
   1 Li_a:2px   -0.0000  -0.0217  -0.0070   0.0233   0.0011  -0.0758  -0.0396
   2 Li_a:2px    0.0007  -0.0408  -0.0421   0.0142   0.1009  -0.3209   0.8604
   3 Li_a:2px    0.0002  -0.0047  -0.2512  -0.5829   0.4902  -2.9706   4.0282
   4 Li_a:2px    0.0000  -0.0001   0.5257   1.8211   1.9517   1.8755   1.8659
   5 Li_a:2px   -0.0000   0.0006  -1.2624  -1.2867  -0.6242  -0.8146  -0.2908
   6 Li_a:3d1+   0.0000  -0.0073   0.0018   0.0113  -0.0138   0.0463   0.0161
   7 Li_a:3d1+   0.0006  -0.0131  -0.0075  -0.1247   0.1554  -0.3132   0.3522
   8 Li_a:3d1+   0.0002  -0.0018  -0.1329  -0.1868  -0.2007  -0.3710   2.4153
   9 Li_a:3d1+   0.0000   0.0009   0.2724  -0.4336   1.9935  -0.6982   1.8925
  10 Li_a:4f1+   0.0002  -0.0045   0.0107   0.0020   0.0493   0.0044   0.0259
  12 Li_a:4f1+   0.0002  -0.0025  -0.0565  -0.0953  -0.0809  -0.2753   0.4326
  14 Li_a:4f1+   0.0000   0.0021  -0.0020  -0.0445   0.1779  -0.2330   0.9644
  16 Li_a:5g1+   0.0001  -0.0014  -0.0009  -0.0070   0.0066  -0.0173   0.0138
  18 Li_a:5g1+   0.0000  -0.0000  -0.0187  -0.0369  -0.0099  -0.1194   0.2313
  20 Cl_a:2px   -1.0004   0.0021  -0.0037  -0.0055  -0.0202  -0.0105  -0.0113
  21 Cl_a:2px    0.0002  -0.9194   0.0305  -0.0986  -0.1598   0.0938   0.1047
  22 Cl_a:2px    0.0008   0.0051   0.0090   0.0103   0.0429   0.0261   0.0275
  23 Cl_a:2px    0.0003  -0.0013  -0.0035  -0.0020  -0.0070  -0.0134   0.0411
  24 Cl_a:2px   -0.0004  -0.0589   0.1824   0.3363   0.0859   1.1346  -2.0124
  25 Cl_a:2px   -0.0001  -0.0268  -0.1030   0.1409  -2.1269   1.0810  -6.1414
  27 Cl_a:3d1+  -0.0002   0.0058   0.0035   0.0038   0.0023   0.0305  -0.0165
  28 Cl_a:3d1+   0.0006   0.0149  -0.0089  -0.0463   0.0088  -0.0792   0.0684
  29 Cl_a:3d1+   0.0003   0.0108  -0.0626  -0.1531   0.1498  -0.5031   1.5511
  32 Cl_a:4f1+  -0.0000  -0.0032  -0.0026  -0.0041   0.0045  -0.0181   0.0563
  34 Cl_a:4f1+  -0.0002  -0.0028   0.0062   0.0286  -0.0500   0.0888  -0.2375
  38 Cl_a:5g1+   0.0001   0.0015   0.0016  -0.0003   0.0136  -0.0021   0.0284

    Orbital         8        9       10       11       12
   1 Li_a:2px   -0.0000  -0.0101   0.1461  -0.0513   0.0161
   2 Li_a:2px    0.0000   0.2814  -0.6269  -0.7341  -3.0367
   3 Li_a:2px   -0.0000   1.6827  -6.8390  -1.4922  -3.0928
   4 Li_a:2px    0.0000   1.3886   1.0102  -0.8112  -0.9141
   5 Li_a:2px   -0.0000  -0.2798  -0.4783   0.1979   0.1482
   6 Li_a:3d1+   0.0000  -0.0278   0.0511  -0.1020  -0.0297
   7 Li_a:3d1+  -0.0000   0.3891  -1.0160   0.4175  -0.7567
   8 Li_a:3d1+  -0.0000  -0.1144  -3.9913  -2.7063  -3.0631
   9 Li_a:3d1+  -0.0000   1.9408  -0.9980  -0.3229  -0.7746
  10 Li_a:4f1+   0.0000   0.1932  -0.0245  -0.0594  -0.1539
  11 Li_a:4f3+  -0.1374   0.0000  -0.0000   0.0000   0.0000
  12 Li_a:4f1+  -0.0000  -0.2695  -1.0577   0.1468  -0.7459
  13 Li_a:4f3+   0.4209  -0.0000   0.0000  -0.0000  -0.0000
  14 Li_a:4f1+  -0.0000   1.7242  -1.7329  -1.6293  -0.7513
  15 Li_a:4f3+  -1.2156   0.0000   0.0000  -0.0000  -0.0000
  16 Li_a:5g1+   0.0000   0.0260  -0.0643   0.0146  -0.1075
  17 Li_a:5g3+  -0.0127  -0.0000   0.0000  -0.0000  -0.0000
  18 Li_a:5g1+  -0.0000   0.0481  -0.5294  -0.1291  -0.1281
  19 Li_a:5g3+   0.0616   0.0000  -0.0000   0.0000   0.0000
  20 Cl_a:2px   -0.0000   0.0237  -0.0760  -0.0852   0.0804
  21 Cl_a:2px   -0.0000   0.1701  -0.1962  -0.0516   0.4878
  22 Cl_a:2px    0.0000  -0.0486   0.1741   0.2061  -0.1628
  23 Cl_a:2px    0.0000   0.0464  -0.1282  -0.1370  -0.0283
  24 Cl_a:2px    0.0000  -0.9055   5.4884   2.1952   3.2070
  25 Cl_a:2px   -0.0000  -3.2647   3.7457   1.8756   3.8289
  26 Cl_a:3d1+   0.0000   0.0088  -0.0320   0.0178  -0.0351
  27 Cl_a:3d1+   0.0000  -0.0131   0.0514   0.0522  -0.0347
  28 Cl_a:3d1+  -0.0000   0.1389  -0.4433   0.0234  -0.2944
  29 Cl_a:3d1+  -0.0000   0.3192  -2.4704  -0.1940  -3.4007
  30 Cl_a:4f1+   0.0000   0.0036   0.0092  -0.0054   0.0125
  32 Cl_a:4f1+   0.0000  -0.0149  -0.0517   0.0199  -0.1056
  34 Cl_a:4f1+  -0.0000  -0.1043   0.3707  -0.0315   0.5813
  36 Cl_a:5g1+  -0.0000  -0.0091   0.0048   0.0034   0.0228
  38 Cl_a:5g1+   0.0000   0.0431  -0.0313  -0.0148  -0.0989

 Molecular orbitals for symmetry species 3  (B2 )
 ------------------------------------------------

    Orbital         1        2        3        4        5        6        7
   1 Li_a:2py   -0.0000  -0.0217  -0.0070   0.0233   0.0011  -0.0758  -0.0396
   2 Li_a:2py    0.0007  -0.0408  -0.0421   0.0142   0.1009  -0.3209   0.8604
   3 Li_a:2py    0.0002  -0.0047  -0.2512  -0.5829   0.4902  -2.9706   4.0282
   4 Li_a:2py    0.0000  -0.0001   0.5257   1.8211   1.9517   1.8755   1.8659
   5 Li_a:2py   -0.0000   0.0006  -1.2624  -1.2867  -0.6242  -0.8146  -0.2908
   6 Li_a:3d1-   0.0000  -0.0073   0.0018   0.0113  -0.0138   0.0463   0.0161
   7 Li_a:3d1-   0.0006  -0.0131  -0.0075  -0.1247   0.1554  -0.3132   0.3522
   8 Li_a:3d1-   0.0002  -0.0018  -0.1329  -0.1868  -0.2007  -0.3710   2.4153
   9 Li_a:3d1-   0.0000   0.0009   0.2724  -0.4336   1.9935  -0.6982   1.8925
  11 Li_a:4f1-   0.0002  -0.0045   0.0107   0.0020   0.0493   0.0044   0.0259
  13 Li_a:4f1-   0.0002  -0.0025  -0.0565  -0.0953  -0.0809  -0.2753   0.4326
  15 Li_a:4f1-   0.0000   0.0021  -0.0020  -0.0445   0.1779  -0.2330   0.9644
  17 Li_a:5g1-   0.0001  -0.0014  -0.0009  -0.0070   0.0066  -0.0173   0.0138
  19 Li_a:5g1-   0.0000  -0.0000  -0.0187  -0.0369  -0.0099  -0.1194   0.2313
  20 Cl_a:2py   -1.0004   0.0021  -0.0037  -0.0055  -0.0202  -0.0105  -0.0113
  21 Cl_a:2py    0.0002  -0.9194   0.0305  -0.0986  -0.1598   0.0938   0.1047
  22 Cl_a:2py    0.0008   0.0051   0.0090   0.0103   0.0429   0.0261   0.0275
  23 Cl_a:2py    0.0003  -0.0013  -0.0035  -0.0020  -0.0070  -0.0134   0.0411
  24 Cl_a:2py   -0.0004  -0.0589   0.1824   0.3363   0.0859   1.1346  -2.0124
  25 Cl_a:2py   -0.0001  -0.0268  -0.1030   0.1409  -2.1269   1.0810  -6.1414
  27 Cl_a:3d1-  -0.0002   0.0058   0.0035   0.0038   0.0023   0.0305  -0.0165
  28 Cl_a:3d1-   0.0006   0.0149  -0.0089  -0.0463   0.0088  -0.0792   0.0684
  29 Cl_a:3d1-   0.0003   0.0108  -0.0626  -0.1531   0.1498  -0.5031   1.5511
  33 Cl_a:4f1-  -0.0000  -0.0032  -0.0026  -0.0041   0.0045  -0.0181   0.0563
  35 Cl_a:4f1-  -0.0002  -0.0028   0.0062   0.0286  -0.0500   0.0888  -0.2375
  39 Cl_a:5g1-   0.0001   0.0015   0.0016  -0.0003   0.0136  -0.0021   0.0284

    Orbital         8        9       10       11       12
   1 Li_a:2py    0.0000  -0.0101   0.1461  -0.0513   0.0161
   2 Li_a:2py   -0.0000   0.2814  -0.6269  -0.7341  -3.0367
   3 Li_a:2py    0.0000   1.6827  -6.8390  -1.4922  -3.0928
   4 Li_a:2py   -0.0000   1.3886   1.0102  -0.8112  -0.9141
   5 Li_a:2py    0.0000  -0.2798  -0.4783   0.1979   0.1482
   6 Li_a:3d1-  -0.0000  -0.0278   0.0511  -0.1020  -0.0297
   7 Li_a:3d1-   0.0000   0.3891  -1.0160   0.4175  -0.7567
   8 Li_a:3d1-   0.0000  -0.1144  -3.9913  -2.7063  -3.0631
   9 Li_a:3d1-   0.0000   1.9408  -0.9980  -0.3229  -0.7746
  10 Li_a:4f3-  -0.1374  -0.0000   0.0000  -0.0000  -0.0000
  11 Li_a:4f1-  -0.0000   0.1932  -0.0245  -0.0594  -0.1539
  12 Li_a:4f3-   0.4209   0.0000   0.0000   0.0000   0.0000
  13 Li_a:4f1-   0.0000  -0.2695  -1.0577   0.1468  -0.7459
  14 Li_a:4f3-  -1.2156  -0.0000  -0.0000   0.0000   0.0000
  15 Li_a:4f1-   0.0000   1.7242  -1.7329  -1.6293  -0.7513
  16 Li_a:5g3-  -0.0127  -0.0000  -0.0000   0.0000   0.0000
  17 Li_a:5g1-  -0.0000   0.0260  -0.0643   0.0146  -0.1075
  18 Li_a:5g3-   0.0616   0.0000   0.0000  -0.0000  -0.0000
  19 Li_a:5g1-   0.0000   0.0481  -0.5294  -0.1291  -0.1281
  20 Cl_a:2py    0.0000   0.0237  -0.0760  -0.0852   0.0804
  21 Cl_a:2py    0.0000   0.1701  -0.1962  -0.0516   0.4878
  22 Cl_a:2py   -0.0000  -0.0486   0.1741   0.2061  -0.1628
  23 Cl_a:2py   -0.0000   0.0464  -0.1282  -0.1370  -0.0283
  24 Cl_a:2py   -0.0000  -0.9055   5.4884   2.1952   3.2070
  25 Cl_a:2py    0.0000  -3.2647   3.7457   1.8756   3.8289
  26 Cl_a:3d1-  -0.0000   0.0088  -0.0320   0.0178  -0.0351
  27 Cl_a:3d1-  -0.0000  -0.0131   0.0514   0.0522  -0.0347
  28 Cl_a:3d1-   0.0000   0.1389  -0.4433   0.0234  -0.2944
  29 Cl_a:3d1-   0.0000   0.3192  -2.4704  -0.1940  -3.4007
  31 Cl_a:4f1-  -0.0000   0.0036   0.0092  -0.0054   0.0125
  33 Cl_a:4f1-   0.0000  -0.0149  -0.0517   0.0199  -0.1056
  35 Cl_a:4f1-  -0.0000  -0.1043   0.3707  -0.0315   0.5813
  37 Cl_a:5g1-   0.0000  -0.0091   0.0048   0.0034   0.0228
  39 Cl_a:5g1-  -0.0000   0.0431  -0.0313  -0.0148  -0.0989

 Molecular orbitals for symmetry species 4  (A2 )
 ------------------------------------------------

    Orbital         1        2        3        4        5        6        7
   1 Li_a:3d2-   0.0330   0.0381   0.1169  -0.0213  -0.0000  -0.0447   0.2796
   2 Li_a:3d2-  -0.1574  -0.1485  -0.4353   0.0723   0.0000   0.2117  -1.9615
   3 Li_a:3d2-   0.3764   0.3469   1.6844  -1.2150  -0.0000   0.4191   1.8834
   4 Li_a:3d2-  -1.1883  -0.3780  -0.8300   0.0254  -0.0000   0.0809  -0.5491
   5 Li_a:4f2-   0.0113  -0.1134   0.0436  -0.0058   0.0000   0.2202  -0.0199
   6 Li_a:4f2-  -0.0414   0.3345  -0.1785  -0.1480   0.0000  -0.8432   0.2469
   7 Li_a:4f2-   0.1347  -1.3082   0.3856  -0.9491  -0.0000   1.0587   0.1181
   8 Li_a:5g4-  -0.0000  -0.0000   0.0000   0.0000  -0.2310  -0.0000  -0.0000
   9 Li_a:5g2-  -0.0053   0.0115  -0.0133  -0.0295   0.0000  -0.1953  -0.0615
  10 Li_a:5g4-   0.0000   0.0000   0.0000   0.0000   1.1327  -0.0000  -0.0000
  11 Li_a:5g2-   0.0074  -0.0390   0.0169  -0.1529   0.0000   1.2443   0.3670
  12 Cl_a:3d2-  -0.0027  -0.0126   0.0139   0.0167   0.0000  -0.0195  -0.0247
  13 Cl_a:3d2-  -0.0019   0.0163   0.0185   0.1588   0.0000   0.0016   0.0113
  14 Cl_a:3d2-  -0.0081  -0.1101   0.0579  -0.2174  -0.0000  -0.0823  -0.1466
  15 Cl_a:3d2-  -0.0136   0.3728  -0.0709   2.1063   0.0000  -1.1066  -0.3265
  16 Cl_a:4f2-   0.0008  -0.0010   0.0015  -0.0102   0.0000   0.0120   0.0123
  17 Cl_a:4f2-  -0.0026   0.0053  -0.0134   0.0703  -0.0000  -0.0630  -0.0462
  18 Cl_a:4f2-  -0.0018  -0.0068  -0.0029  -0.2068   0.0000   0.1209   0.0954
  20 Cl_a:5g2-  -0.0016  -0.0003  -0.0038  -0.0082   0.0000  -0.0084  -0.0112
  21 Cl_a:5g4-   0.0000   0.0000  -0.0000  -0.0000  -0.0123   0.0000   0.0000
  22 Cl_a:5g2-   0.0051   0.0035   0.0138   0.0299  -0.0000   0.0352   0.0387

    Orbital         8        9       10
   1 Li_a:3d2-  -0.0338   0.0228   0.0652
   2 Li_a:3d2-   0.3374  -0.2822  -1.0856
   3 Li_a:3d2-   1.0275   0.3951  -0.8608
   4 Li_a:3d2-   0.0700   0.0117  -0.0095
   5 Li_a:4f2-  -0.3084   0.2413   0.2701
   6 Li_a:4f2-   1.7346  -0.7307  -1.8911
   7 Li_a:4f2-   0.3707   0.4940  -0.2771
   9 Li_a:5g2-  -0.0978   0.1636  -0.1880
  11 Li_a:5g2-   1.3371  -0.3213  -0.9029
  12 Cl_a:3d2-   0.0577   0.2005   0.0542
  13 Cl_a:3d2-   0.0379  -0.0357   0.0125
  14 Cl_a:3d2-   0.2213   1.2793   0.4172
  15 Cl_a:3d2-  -2.3500  -0.9091   2.0107
  16 Cl_a:4f2-   0.0183   0.0162  -0.1162
  17 Cl_a:4f2-  -0.1656  -0.0668   0.5727
  18 Cl_a:4f2-   0.4817   0.2594  -2.3303
  20 Cl_a:5g2-   0.0097   0.0124  -0.0119
  22 Cl_a:5g2-  -0.0188  -0.0552   0.0538

  Total CPU  time used in SIRIUS :   3.69 seconds
  Total wall time used in SIRIUS :   3.70 seconds

 
     Date and time (Linux)  : Wed Jan 11 14:14:31 2023
     Host name              : cn041                                   


                     .---------------------------------------.
                     | End of Wave Function Section (SIRIUS) |
                     `---------------------------------------'



                 .------------------------------------------------.
                 | Starting in Dynamic Property Section (RESPONS) |
                 `------------------------------------------------'


 ----------------------------------------------------------------------------------------
  RESPONSE  -  an MCSCF, MC-srDFT, DFT, SOPPA and SOPPA-srDFT response property program
 ----------------------------------------------------------------------------------------


 -------- OUTPUT FROM RESPONSE INPUT PROCESSING --------




 Linear Response calculation
 ---------------------------

 Print level                                    : IPRLR  =   2
 Maximum number of iterations                   : MAXITL =  60
 Threshold for relative convergence             : THCLR  = 1.000D-03
 Maximum iterations in optimal orbital algorithm: MAXITO =   5

  9 B-frequencies  0.000000D+00  1.369456D-02  2.738913D-02  4.108369D-02  5.477825D-02
  6.847281D-02  8.216738D-02  9.586194D-02  1.095565D-01

    1 second order properties calculated with symmetry no.    1 and labels:

          ZDIPLEN 

    1 second order properties calculated with symmetry no.    2 and labels:

          XDIPLEN 

    1 second order properties calculated with symmetry no.    3 and labels:

          YDIPLEN 


   SCF energy         :     -467.055367540389625
 -- inactive part     :     -480.411397395044617
 -- nuclear repulsion :       13.356029854654969


                     ***************************************
                     *** RHF response calculation (TDHF) ***
                     ***************************************

 ----------------------------------------------------------------
 ----- Linear response calculation
 ----- Symmetry of excitation/property operator(s)    1  ( A1 )
 ----------------------------------------------------------------

 Number of excitations of this symmetry            0
 Number of response properties of this symmetry    1
 Number of C6/C8 properties of this symmetry       0


 Perturbation symmetry.     KSYMOP:           1
 Perturbation spin symmetry.TRPLET:           F
 Orbital variables.         KZWOPT:         496
 Configuration variables.   KZCONF:           0
 Total number of variables. KZVAR :         496


 RSPLR -- linear response calculation for symmetry 1  ( A1 )
 RSPLR -- operator label : ZDIPLEN 
 RSPLR -- operator spin  :   0
 RSPLR -- frequencies    :     0.000000  0.013695  0.027389  0.041084  0.054778
                               0.068473  0.082167  0.095862  0.109557



 ---  SOLVING SETS OF LINEAR EQUATIONS FOR LINEAR RESPONSE PROPERTIES ---

 Operator symmetry = 1  ( A1 ); triplet =   F


 ** RSPCTL MICROITERATION NUMBER    1

       No.  Residual tot.,    conf., and orb.    Bnorm      Frequency 
      ----------------------------------------------------------------
         1    2.15387D+00  0.00D+00  2.15D+00  4.66D+00    0.00000D+00
         2    2.15565D+00  0.00D+00  2.16D+00  4.67D+00    1.36946D-02
         3    2.16103D+00  0.00D+00  2.16D+00  4.71D+00    2.73891D-02
         4    2.17013D+00  0.00D+00  2.17D+00  4.77D+00    4.10837D-02
         5    2.18315D+00  0.00D+00  2.18D+00  4.85D+00    5.47783D-02
         6    2.20039D+00  0.00D+00  2.20D+00  4.97D+00    6.84728D-02
         7    2.22228D+00  0.00D+00  2.22D+00  5.11D+00    8.21674D-02
         8    2.24942D+00  0.00D+00  2.25D+00  5.30D+00    9.58619D-02
         9    2.28261D+00  0.00D+00  2.28D+00  5.52D+00    1.09557D-01

 ** RSPCTL MICROITERATION NUMBER    2

       No.  Residual tot.,    conf., and orb.    Bnorm      Frequency 
      ----------------------------------------------------------------
         1    3.29877D-01  0.00D+00  3.30D-01  4.96D+00    0.00000D+00
         2    3.30642D-01  0.00D+00  3.31D-01  4.97D+00    1.36946D-02
         3    3.32961D-01  0.00D+00  3.33D-01  5.01D+00    2.73891D-02
         4    3.36909D-01  0.00D+00  3.37D-01  5.08D+00    4.10837D-02
         5    3.42615D-01  0.00D+00  3.43D-01  5.17D+00    5.47783D-02
         6    3.50278D-01  0.00D+00  3.50D-01  5.30D+00    6.84728D-02
         7    3.60185D-01  0.00D+00  3.60D-01  5.46D+00    8.21674D-02
         8    3.72739D-01  0.00D+00  3.73D-01  5.67D+00    9.58619D-02
         9    3.88514D-01  0.00D+00  3.89D-01  5.93D+00    1.09557D-01

 ** RSPCTL MICROITERATION NUMBER    3

       No.  Residual tot.,    conf., and orb.    Bnorm      Frequency 
      ----------------------------------------------------------------
         1    4.78655D-02  0.00D+00  4.79D-02  4.97D+00    0.00000D+00
         2    4.80402D-02  0.00D+00  4.80D-02  4.98D+00    1.36946D-02
         3    4.85713D-02  0.00D+00  4.86D-02  5.02D+00    2.73891D-02
         4    4.94801D-02  0.00D+00  4.95D-02  5.09D+00    4.10837D-02
         5    5.08039D-02  0.00D+00  5.08D-02  5.19D+00    5.47783D-02
         6    5.26002D-02  0.00D+00  5.26D-02  5.32D+00    6.84728D-02
         7    5.49521D-02  0.00D+00  5.50D-02  5.48D+00    8.21674D-02
         8    5.79777D-02  0.00D+00  5.80D-02  5.69D+00    9.58619D-02
         9    6.18456D-02  0.00D+00  6.18D-02  5.95D+00    1.09557D-01

 ** RSPCTL MICROITERATION NUMBER    4

       No.  Residual tot.,    conf., and orb.    Bnorm      Frequency 
      ----------------------------------------------------------------
         1    4.38035D-03  0.00D+00  4.38D-03  4.97D+00    0.00000D+00
         2    4.39340D-03  0.00D+00  4.39D-03  4.98D+00    1.36946D-02
         3    4.43311D-03  0.00D+00  4.43D-03  5.02D+00    2.73891D-02
         4    4.50117D-03  0.00D+00  4.50D-03  5.09D+00    4.10837D-02
         5    4.60063D-03  0.00D+00  4.60D-03  5.19D+00    5.47783D-02
         6    4.73632D-03  0.00D+00  4.74D-03  5.32D+00    6.84728D-02
         7    4.91552D-03  0.00D+00  4.92D-03  5.48D+00    8.21674D-02
         8    5.14915D-03  0.00D+00  5.15D-03  5.69D+00    9.58619D-02
         9    5.45383D-03  0.00D+00  5.45D-03  5.95D+00    1.09557D-01

 *** THE REQUESTED    9 SOLUTION VECTORS CONVERGED

 Convergence of RSP solution vectors, threshold = 1.00D-03
 ---------------------------------------------------------------
 (dimension of paired reduced space:   72)
 RSP solution vector no.    1; norm of residual   8.82D-04
 RSP solution vector no.    2; norm of residual   8.82D-04
 RSP solution vector no.    3; norm of residual   8.83D-04
 RSP solution vector no.    4; norm of residual   8.84D-04
 RSP solution vector no.    5; norm of residual   8.87D-04
 RSP solution vector no.    6; norm of residual   8.91D-04
 RSP solution vector no.    7; norm of residual   8.96D-04
 RSP solution vector no.    8; norm of residual   9.05D-04
 RSP solution vector no.    9; norm of residual   9.16D-04

 *** RSPCTL MICROITERATIONS CONVERGED


           Final output of second order properties from linear response
           ------------------------------------------------------------


@ Spin symmetry of operators: singlet

 Note that minus the linear response function: - << A; B >>(omega) is printed.
 The results are of quadratic accuracy using Sellers formula.

@ FREQUENCY INDEPENDENT SECOND ORDER PROPERTIES

@ -<< ZDIPLEN  ; ZDIPLEN  >> =  2.449409097649E+01

@ FREQUENCY DEPENDENT SECOND ORDER PROPERTIES WITH FREQUENCY :

@    a.u.:  1.3694563D-02
@    cm-1:  3.0056090D+03
@    eV  :  3.7264800D-01
@  kJ/mol:  3.5955068D+01
@    nm  :  3.3271127D+03

@ -<< ZDIPLEN  ; ZDIPLEN  >> =  2.452381896779E+01

@ FREQUENCY DEPENDENT SECOND ORDER PROPERTIES WITH FREQUENCY :

@    a.u.:  2.7389125D-02
@    cm-1:  6.0112181D+03
@    eV  :  7.4529600D-01
@  kJ/mol:  7.1910137D+01
@    nm  :  1.6635564D+03

@ -<< ZDIPLEN  ; ZDIPLEN  >> =  2.461366262216E+01

@ FREQUENCY DEPENDENT SECOND ORDER PROPERTIES WITH FREQUENCY :

@    a.u.:  4.1083688D-02
@    cm-1:  9.0168271D+03
@    eV  :  1.1179440D+00
@  kJ/mol:  1.0786520D+02
@    nm  :  1.1090376D+03

@ -<< ZDIPLEN  ; ZDIPLEN  >> =  2.476564650371E+01

@ FREQUENCY DEPENDENT SECOND ORDER PROPERTIES WITH FREQUENCY :

@    a.u.:  5.4778250D-02
@    cm-1:  1.2022436D+04
@    eV  :  1.4905920D+00
@  kJ/mol:  1.4382027D+02
@    nm  :  8.3177818D+02

@ -<< ZDIPLEN  ; ZDIPLEN  >> =  2.498330331094E+01

@ FREQUENCY DEPENDENT SECOND ORDER PROPERTIES WITH FREQUENCY :

@    a.u.:  6.8472813D-02
@    cm-1:  1.5028045D+04
@    eV  :  1.8632400D+00
@  kJ/mol:  1.7977534D+02
@    nm  :  6.6542254D+02

@ -<< ZDIPLEN  ; ZDIPLEN  >> =  2.527193664367E+01

@ FREQUENCY DEPENDENT SECOND ORDER PROPERTIES WITH FREQUENCY :

@    a.u.:  8.2167375D-02
@    cm-1:  1.8033654D+04
@    eV  :  2.2358880D+00
@  kJ/mol:  2.1573041D+02
@    nm  :  5.5451878D+02

@ -<< ZDIPLEN  ; ZDIPLEN  >> =  2.563904612205E+01

@ FREQUENCY DEPENDENT SECOND ORDER PROPERTIES WITH FREQUENCY :

@    a.u.:  9.5861937D-02
@    cm-1:  2.1039263D+04
@    eV  :  2.6085360D+00
@  kJ/mol:  2.5168548D+02
@    nm  :  4.7530182D+02

@ -<< ZDIPLEN  ; ZDIPLEN  >> =  2.609499151197E+01

@ FREQUENCY DEPENDENT SECOND ORDER PROPERTIES WITH FREQUENCY :

@    a.u.:  1.0955650D-01
@    cm-1:  2.4044872D+04
@    eV  :  2.9811840D+00
@  kJ/mol:  2.8764055D+02
@    nm  :  4.1588909D+02

@ -<< ZDIPLEN  ; ZDIPLEN  >> =  2.665403220897E+01


 Time used in linear response calculation is      3.03 CPU seconds for symmetry 1
 ----------------------------------------------------------------
 ----- Linear response calculation
 ----- Symmetry of excitation/property operator(s)    2  ( B1 )
 ----------------------------------------------------------------

 Number of excitations of this symmetry            0
 Number of response properties of this symmetry    1
 Number of C6/C8 properties of this symmetry       0


 Perturbation symmetry.     KSYMOP:           2
 Perturbation spin symmetry.TRPLET:           F
 Orbital variables.         KZWOPT:         382
 Configuration variables.   KZCONF:           0
 Total number of variables. KZVAR :         382


 RSPLR -- linear response calculation for symmetry 2  ( B1 )
 RSPLR -- operator label : XDIPLEN 
 RSPLR -- operator spin  :   0
 RSPLR -- frequencies    :     0.000000  0.013695  0.027389  0.041084  0.054778
                               0.068473  0.082167  0.095862  0.109557



 ---  SOLVING SETS OF LINEAR EQUATIONS FOR LINEAR RESPONSE PROPERTIES ---

 Operator symmetry = 2  ( B1 ); triplet =   F


 ** RSPCTL MICROITERATION NUMBER    1

       No.  Residual tot.,    conf., and orb.    Bnorm      Frequency 
      ----------------------------------------------------------------
         1    1.56794D+00  0.00D+00  1.57D+00  4.80D+00    0.00000D+00
         2    1.56898D+00  0.00D+00  1.57D+00  4.82D+00    1.36946D-02
         3    1.57212D+00  0.00D+00  1.57D+00  4.86D+00    2.73891D-02
         4    1.57743D+00  0.00D+00  1.58D+00  4.93D+00    4.10837D-02
         5    1.58503D+00  0.00D+00  1.59D+00  5.02D+00    5.47783D-02
         6    1.59511D+00  0.00D+00  1.60D+00  5.16D+00    6.84728D-02
         7    1.60794D+00  0.00D+00  1.61D+00  5.33D+00    8.21674D-02
         8    1.62390D+00  0.00D+00  1.62D+00  5.54D+00    9.58619D-02
         9    1.64357D+00  0.00D+00  1.64D+00  5.82D+00    1.09557D-01

 ** RSPCTL MICROITERATION NUMBER    2

       No.  Residual tot.,    conf., and orb.    Bnorm      Frequency 
      ----------------------------------------------------------------
         1    1.91432D-01  0.00D+00  1.91D-01  5.03D+00    0.00000D+00
         2    1.91746D-01  0.00D+00  1.92D-01  5.05D+00    1.36946D-02
         3    1.92701D-01  0.00D+00  1.93D-01  5.09D+00    2.73891D-02
         4    1.94335D-01  0.00D+00  1.94D-01  5.17D+00    4.10837D-02
         5    1.96721D-01  0.00D+00  1.97D-01  5.28D+00    5.47783D-02
         6    1.99970D-01  0.00D+00  2.00D-01  5.43D+00    6.84728D-02
         7    2.04256D-01  0.00D+00  2.04D-01  5.63D+00    8.21674D-02
         8    2.09838D-01  0.00D+00  2.10D-01  5.88D+00    9.58619D-02
         9    2.17121D-01  0.00D+00  2.17D-01  6.21D+00    1.09557D-01

 ** RSPCTL MICROITERATION NUMBER    3

       No.  Residual tot.,    conf., and orb.    Bnorm      Frequency 
      ----------------------------------------------------------------
         1    1.29798D-02  0.00D+00  1.30D-02  5.04D+00    0.00000D+00
         2    1.30684D-02  0.00D+00  1.31D-02  5.05D+00    1.36946D-02
         3    1.33373D-02  0.00D+00  1.33D-02  5.10D+00    2.73891D-02
         4    1.37966D-02  0.00D+00  1.38D-02  5.18D+00    4.10837D-02
         5    1.44639D-02  0.00D+00  1.45D-02  5.29D+00    5.47783D-02
         6    1.53676D-02  0.00D+00  1.54D-02  5.44D+00    6.84728D-02
         7    1.65496D-02  0.00D+00  1.65D-02  5.64D+00    8.21674D-02
         8    1.80728D-02  0.00D+00  1.81D-02  5.89D+00    9.58619D-02
         9    2.00315D-02  0.00D+00  2.00D-02  6.22D+00    1.09557D-01

 ** RSPCTL MICROITERATION NUMBER    4

       No.  Residual tot.,    conf., and orb.    Bnorm      Frequency 
      ----------------------------------------------------------------
         1    1.16031D-03  0.00D+00  1.16D-03  5.04D+00    0.00000D+00
         2    1.16792D-03  0.00D+00  1.17D-03  5.05D+00    1.36946D-02
         3    1.19136D-03  0.00D+00  1.19D-03  5.10D+00    2.73891D-02
         4    1.23255D-03  0.00D+00  1.23D-03  5.18D+00    4.10837D-02
         5    1.29491D-03  0.00D+00  1.29D-03  5.29D+00    5.47783D-02
         6    1.38374D-03  0.00D+00  1.38D-03  5.44D+00    6.84728D-02
         7    1.50685D-03  0.00D+00  1.51D-03  5.64D+00    8.21674D-02
         8    1.67564D-03  0.00D+00  1.68D-03  5.89D+00    9.58619D-02
         9    1.90688D-03  0.00D+00  1.91D-03  6.22D+00    1.09557D-01

 *** THE REQUESTED    9 SOLUTION VECTORS CONVERGED

 Convergence of RSP solution vectors, threshold = 1.00D-03
 ---------------------------------------------------------------
 (dimension of paired reduced space:   72)
 RSP solution vector no.    1; norm of residual   2.30D-04
 RSP solution vector no.    2; norm of residual   2.31D-04
 RSP solution vector no.    3; norm of residual   2.34D-04
 RSP solution vector no.    4; norm of residual   2.38D-04
 RSP solution vector no.    5; norm of residual   2.45D-04
 RSP solution vector no.    6; norm of residual   2.54D-04
 RSP solution vector no.    7; norm of residual   2.67D-04
 RSP solution vector no.    8; norm of residual   2.84D-04
 RSP solution vector no.    9; norm of residual   3.07D-04

 *** RSPCTL MICROITERATIONS CONVERGED


           Final output of second order properties from linear response
           ------------------------------------------------------------


@ Spin symmetry of operators: singlet

 Note that minus the linear response function: - << A; B >>(omega) is printed.
 The results are of quadratic accuracy using Sellers formula.

@ FREQUENCY INDEPENDENT SECOND ORDER PROPERTIES

@ -<< XDIPLEN  ; XDIPLEN  >> =  2.369354009527E+01

@ FREQUENCY DEPENDENT SECOND ORDER PROPERTIES WITH FREQUENCY :

@    a.u.:  1.3694563D-02
@    cm-1:  3.0056090D+03
@    eV  :  3.7264800D-01
@  kJ/mol:  3.5955068D+01
@    nm  :  3.3271127D+03

@ -<< XDIPLEN  ; XDIPLEN  >> =  2.372481341066E+01

@ FREQUENCY DEPENDENT SECOND ORDER PROPERTIES WITH FREQUENCY :

@    a.u.:  2.7389125D-02
@    cm-1:  6.0112181D+03
@    eV  :  7.4529600D-01
@  kJ/mol:  7.1910137D+01
@    nm  :  1.6635564D+03

@ -<< XDIPLEN  ; XDIPLEN  >> =  2.381946516575E+01

@ FREQUENCY DEPENDENT SECOND ORDER PROPERTIES WITH FREQUENCY :

@    a.u.:  4.1083688D-02
@    cm-1:  9.0168271D+03
@    eV  :  1.1179440D+00
@  kJ/mol:  1.0786520D+02
@    nm  :  1.1090376D+03

@ -<< XDIPLEN  ; XDIPLEN  >> =  2.398006520321E+01

@ FREQUENCY DEPENDENT SECOND ORDER PROPERTIES WITH FREQUENCY :

@    a.u.:  5.4778250D-02
@    cm-1:  1.2022436D+04
@    eV  :  1.4905920D+00
@  kJ/mol:  1.4382027D+02
@    nm  :  8.3177818D+02

@ -<< XDIPLEN  ; XDIPLEN  >> =  2.421115942892E+01

@ FREQUENCY DEPENDENT SECOND ORDER PROPERTIES WITH FREQUENCY :

@    a.u.:  6.8472813D-02
@    cm-1:  1.5028045D+04
@    eV  :  1.8632400D+00
@  kJ/mol:  1.7977534D+02
@    nm  :  6.6542254D+02

@ -<< XDIPLEN  ; XDIPLEN  >> =  2.451972108928E+01

@ FREQUENCY DEPENDENT SECOND ORDER PROPERTIES WITH FREQUENCY :

@    a.u.:  8.2167375D-02
@    cm-1:  1.8033654D+04
@    eV  :  2.2358880D+00
@  kJ/mol:  2.1573041D+02
@    nm  :  5.5451878D+02

@ -<< XDIPLEN  ; XDIPLEN  >> =  2.491591868177E+01

@ FREQUENCY DEPENDENT SECOND ORDER PROPERTIES WITH FREQUENCY :

@    a.u.:  9.5861937D-02
@    cm-1:  2.1039263D+04
@    eV  :  2.6085360D+00
@  kJ/mol:  2.5168548D+02
@    nm  :  4.7530182D+02

@ -<< XDIPLEN  ; XDIPLEN  >> =  2.541440184723E+01

@ FREQUENCY DEPENDENT SECOND ORDER PROPERTIES WITH FREQUENCY :

@    a.u.:  1.0955650D-01
@    cm-1:  2.4044872D+04
@    eV  :  2.9811840D+00
@  kJ/mol:  2.8764055D+02
@    nm  :  4.1588909D+02

@ -<< XDIPLEN  ; XDIPLEN  >> =  2.603650547182E+01


 Time used in linear response calculation is      3.10 CPU seconds for symmetry 2
 ----------------------------------------------------------------
 ----- Linear response calculation
 ----- Symmetry of excitation/property operator(s)    3  ( B2 )
 ----------------------------------------------------------------

 Number of excitations of this symmetry            0
 Number of response properties of this symmetry    1
 Number of C6/C8 properties of this symmetry       0


 Perturbation symmetry.     KSYMOP:           3
 Perturbation spin symmetry.TRPLET:           F
 Orbital variables.         KZWOPT:         382
 Configuration variables.   KZCONF:           0
 Total number of variables. KZVAR :         382


 RSPLR -- linear response calculation for symmetry 3  ( B2 )
 RSPLR -- operator label : YDIPLEN 
 RSPLR -- operator spin  :   0
 RSPLR -- frequencies    :     0.000000  0.013695  0.027389  0.041084  0.054778
                               0.068473  0.082167  0.095862  0.109557



 ---  SOLVING SETS OF LINEAR EQUATIONS FOR LINEAR RESPONSE PROPERTIES ---

 Operator symmetry = 3  ( B2 ); triplet =   F


 ** RSPCTL MICROITERATION NUMBER    1

       No.  Residual tot.,    conf., and orb.    Bnorm      Frequency 
      ----------------------------------------------------------------
         1    1.56844D+00  0.00D+00  1.57D+00  4.81D+00    0.00000D+00
         2    1.56950D+00  0.00D+00  1.57D+00  4.82D+00    1.36946D-02
         3    1.57267D+00  0.00D+00  1.57D+00  4.86D+00    2.73891D-02
         4    1.57805D+00  0.00D+00  1.58D+00  4.93D+00    4.10837D-02
         5    1.58574D+00  0.00D+00  1.59D+00  5.02D+00    5.47783D-02
         6    1.59594D+00  0.00D+00  1.60D+00  5.16D+00    6.84728D-02
         7    1.60891D+00  0.00D+00  1.61D+00  5.33D+00    8.21674D-02
         8    1.62507D+00  0.00D+00  1.63D+00  5.54D+00    9.58619D-02
         9    1.64497D+00  0.00D+00  1.64D+00  5.82D+00    1.09557D-01

 ** RSPCTL MICROITERATION NUMBER    2

       No.  Residual tot.,    conf., and orb.    Bnorm      Frequency 
      ----------------------------------------------------------------
         1    1.90703D-01  0.00D+00  1.91D-01  5.04D+00    0.00000D+00
         2    1.91029D-01  0.00D+00  1.91D-01  5.05D+00    1.36946D-02
         3    1.92021D-01  0.00D+00  1.92D-01  5.10D+00    2.73891D-02
         4    1.93722D-01  0.00D+00  1.94D-01  5.17D+00    4.10837D-02
         5    1.96212D-01  0.00D+00  1.96D-01  5.28D+00    5.47783D-02
         6    1.99617D-01  0.00D+00  2.00D-01  5.43D+00    6.84728D-02
         7    2.04133D-01  0.00D+00  2.04D-01  5.63D+00    8.21674D-02
         8    2.10055D-01  0.00D+00  2.10D-01  5.88D+00    9.58619D-02
         9    2.17849D-01  0.00D+00  2.18D-01  6.21D+00    1.09557D-01

 ** RSPCTL MICROITERATION NUMBER    3

       No.  Residual tot.,    conf., and orb.    Bnorm      Frequency 
      ----------------------------------------------------------------
         1    1.08137D-02  0.00D+00  1.08D-02  5.04D+00    0.00000D+00
         2    1.08857D-02  0.00D+00  1.09D-02  5.05D+00    1.36946D-02
         3    1.11042D-02  0.00D+00  1.11D-02  5.10D+00    2.73891D-02
         4    1.14774D-02  0.00D+00  1.15D-02  5.18D+00    4.10837D-02
         5    1.20201D-02  0.00D+00  1.20D-02  5.29D+00    5.47783D-02
         6    1.27557D-02  0.00D+00  1.28D-02  5.44D+00    6.84728D-02
         7    1.37193D-02  0.00D+00  1.37D-02  5.64D+00    8.21674D-02
         8    1.49638D-02  0.00D+00  1.50D-02  5.89D+00    9.58619D-02
         9    1.65700D-02  0.00D+00  1.66D-02  6.22D+00    1.09557D-01

 ** RSPCTL MICROITERATION NUMBER    4

       No.  Residual tot.,    conf., and orb.    Bnorm      Frequency 
      ----------------------------------------------------------------
         1    1.52833D-03  0.00D+00  1.53D-03  5.04D+00    0.00000D+00
         2    1.54233D-03  0.00D+00  1.54D-03  5.05D+00    1.36946D-02
         3    1.58494D-03  0.00D+00  1.58D-03  5.10D+00    2.73891D-02
         4    1.65800D-03  0.00D+00  1.66D-03  5.18D+00    4.10837D-02
         5    1.76487D-03  0.00D+00  1.76D-03  5.29D+00    5.47783D-02
         6    1.91081D-03  0.00D+00  1.91D-03  5.44D+00    6.84728D-02
         7    2.10375D-03  0.00D+00  2.10D-03  5.64D+00    8.21674D-02
         8    2.35541D-03  0.00D+00  2.36D-03  5.89D+00    9.58619D-02
         9    2.68345D-03  0.00D+00  2.68D-03  6.22D+00    1.09557D-01

 *** THE REQUESTED    9 SOLUTION VECTORS CONVERGED

 Convergence of RSP solution vectors, threshold = 1.00D-03
 ---------------------------------------------------------------
 (dimension of paired reduced space:   72)
 RSP solution vector no.    1; norm of residual   3.03D-04
 RSP solution vector no.    2; norm of residual   3.05D-04
 RSP solution vector no.    3; norm of residual   3.11D-04
 RSP solution vector no.    4; norm of residual   3.20D-04
 RSP solution vector no.    5; norm of residual   3.34D-04
 RSP solution vector no.    6; norm of residual   3.51D-04
 RSP solution vector no.    7; norm of residual   3.73D-04
 RSP solution vector no.    8; norm of residual   4.00D-04
 RSP solution vector no.    9; norm of residual   4.31D-04

 *** RSPCTL MICROITERATIONS CONVERGED


           Final output of second order properties from linear response
           ------------------------------------------------------------


@ Spin symmetry of operators: singlet

 Note that minus the linear response function: - << A; B >>(omega) is printed.
 The results are of quadratic accuracy using Sellers formula.

@ FREQUENCY INDEPENDENT SECOND ORDER PROPERTIES

@ -<< YDIPLEN  ; YDIPLEN  >> =  2.369353984009E+01

@ FREQUENCY DEPENDENT SECOND ORDER PROPERTIES WITH FREQUENCY :

@    a.u.:  1.3694563D-02
@    cm-1:  3.0056090D+03
@    eV  :  3.7264800D-01
@  kJ/mol:  3.5955068D+01
@    nm  :  3.3271127D+03

@ -<< YDIPLEN  ; YDIPLEN  >> =  2.372481314829E+01

@ FREQUENCY DEPENDENT SECOND ORDER PROPERTIES WITH FREQUENCY :

@    a.u.:  2.7389125D-02
@    cm-1:  6.0112181D+03
@    eV  :  7.4529600D-01
@  kJ/mol:  7.1910137D+01
@    nm  :  1.6635564D+03

@ -<< YDIPLEN  ; YDIPLEN  >> =  2.381946488121E+01

@ FREQUENCY DEPENDENT SECOND ORDER PROPERTIES WITH FREQUENCY :

@    a.u.:  4.1083688D-02
@    cm-1:  9.0168271D+03
@    eV  :  1.1179440D+00
@  kJ/mol:  1.0786520D+02
@    nm  :  1.1090376D+03

@ -<< YDIPLEN  ; YDIPLEN  >> =  2.398006487959E+01

@ FREQUENCY DEPENDENT SECOND ORDER PROPERTIES WITH FREQUENCY :

@    a.u.:  5.4778250D-02
@    cm-1:  1.2022436D+04
@    eV  :  1.4905920D+00
@  kJ/mol:  1.4382027D+02
@    nm  :  8.3177818D+02

@ -<< YDIPLEN  ; YDIPLEN  >> =  2.421115904580E+01

@ FREQUENCY DEPENDENT SECOND ORDER PROPERTIES WITH FREQUENCY :

@    a.u.:  6.8472813D-02
@    cm-1:  1.5028045D+04
@    eV  :  1.8632400D+00
@  kJ/mol:  1.7977534D+02
@    nm  :  6.6542254D+02

@ -<< YDIPLEN  ; YDIPLEN  >> =  2.451972062047E+01

@ FREQUENCY DEPENDENT SECOND ORDER PROPERTIES WITH FREQUENCY :

@    a.u.:  8.2167375D-02
@    cm-1:  1.8033654D+04
@    eV  :  2.2358880D+00
@  kJ/mol:  2.1573041D+02
@    nm  :  5.5451878D+02

@ -<< YDIPLEN  ; YDIPLEN  >> =  2.491591809207E+01

@ FREQUENCY DEPENDENT SECOND ORDER PROPERTIES WITH FREQUENCY :

@    a.u.:  9.5861937D-02
@    cm-1:  2.1039263D+04
@    eV  :  2.6085360D+00
@  kJ/mol:  2.5168548D+02
@    nm  :  4.7530182D+02

@ -<< YDIPLEN  ; YDIPLEN  >> =  2.541440108728E+01

@ FREQUENCY DEPENDENT SECOND ORDER PROPERTIES WITH FREQUENCY :

@    a.u.:  1.0955650D-01
@    cm-1:  2.4044872D+04
@    eV  :  2.9811840D+00
@  kJ/mol:  2.8764055D+02
@    nm  :  4.1588909D+02

@ -<< YDIPLEN  ; YDIPLEN  >> =  2.603650446939E+01


 Time used in linear response calculation is      3.08 CPU seconds for symmetry 3

  Total CPU  time used in RESPONSE:   9.21 seconds
  Total wall time used in RESPONSE:   9.24 seconds


                   .-------------------------------------------.
                   | End of Dynamic Property Section (RESPONS) |
                   `-------------------------------------------'

  Total CPU  time used in DALTON:  13.34 seconds
  Total wall time used in DALTON:  13.39 seconds

 
     Date and time (Linux)  : Wed Jan 11 14:14:41 2023
     Host name              : cn041                                   
