

     ************************************************************************
     *************** Dalton - An Electronic Structure Program ***************
     ************************************************************************

    This is output from DALTON release Dalton2020.0 (2020)
         ( Web site: http://daltonprogram.org )

   ----------------------------------------------------------------------------

    NOTE:
     
    Dalton is an experimental code for the evaluation of molecular
    properties using (MC)SCF, DFT, CI, and CC wave functions.
    The authors accept no responsibility for the performance of
    the code or for the correctness of the results.
     
    The code (in whole or part) is provided under a licence and
    is not to be reproduced for further distribution without
    the written permission of the authors or their representatives.
     
    See the home page "http://daltonprogram.org" for further information.
     
    If results obtained with this code are published,
    the appropriate citations would be both of:
     
       K. Aidas, C. Angeli, K. L. Bak, V. Bakken, R. Bast,
       L. Boman, O. Christiansen, R. Cimiraglia, S. Coriani,
       P. Dahle, E. K. Dalskov, U. Ekstroem,
       T. Enevoldsen, J. J. Eriksen, P. Ettenhuber, B. Fernandez,
       L. Ferrighi, H. Fliegl, L. Frediani, K. Hald, A. Halkier,
       C. Haettig, H. Heiberg, T. Helgaker, A. C. Hennum,
       H. Hettema, E. Hjertenaes, S. Hoest, I.-M. Hoeyvik,
       M. F. Iozzi, B. Jansik, H. J. Aa. Jensen, D. Jonsson,
       P. Joergensen, J. Kauczor, S. Kirpekar,
       T. Kjaergaard, W. Klopper, S. Knecht, R. Kobayashi, H. Koch,
       J. Kongsted, A. Krapp, K. Kristensen, A. Ligabue,
       O. B. Lutnaes, J. I. Melo, K. V. Mikkelsen, R. H. Myhre,
       C. Neiss, C. B. Nielsen, P. Norman, J. Olsen,
       J. M. H. Olsen, A. Osted, M. J. Packer, F. Pawlowski,
       T. B. Pedersen, P. F. Provasi, S. Reine, Z. Rinkevicius,
       T. A. Ruden, K. Ruud, V. Rybkin, P. Salek, C. C. M. Samson,
       A. Sanchez de Meras, T. Saue, S. P. A. Sauer,
       B. Schimmelpfennig, K. Sneskov, A. H. Steindal,
       K. O. Sylvester-Hvid, P. R. Taylor, A. M. Teale,
       E. I. Tellgren, D. P. Tew, A. J. Thorvaldsen, L. Thoegersen,
       O. Vahtras, M. A. Watson, D. J. D. Wilson, M. Ziolkowski
       and H. Agren,
       "The Dalton quantum chemistry program system",
       WIREs Comput. Mol. Sci. 2014, 4:269–284 (doi: 10.1002/wcms.1172)
     
    and
     
       Dalton, a molecular electronic structure program,
       Release Dalton2020.0 (2020), see http://daltonprogram.org
   ----------------------------------------------------------------------------

    Authors in alphabetical order (Major contribution(s) in parenthesis):

  Kestutis Aidas,           Vilnius University,           Lithuania   (QM/MM)
  Celestino Angeli,         University of Ferrara,        Italy       (NEVPT2)
  Keld L. Bak,              UNI-C,                        Denmark     (AOSOPPA, non-adiabatic coupling, magnetic properties)
  Vebjoern Bakken,          University of Oslo,           Norway      (DALTON; geometry optimizer, symmetry detection)
  Radovan Bast,             UiT The Arctic U. of Norway,  Norway      (DALTON installation and execution frameworks)
  Pablo Baudin,             University of Valencia,       Spain       (Cholesky excitation energies)
  Linus Boman,              NTNU,                         Norway      (Cholesky decomposition and subsystems)
  Bruno N. Cabral Tenorio,  Technical Univ. of Denmark,   Denmark     (Lanczos-based CC methods)
  Ove Christiansen,         Aarhus University,            Denmark     (CC module)
  Renzo Cimiraglia,         University of Ferrara,        Italy       (NEVPT2)
  Sonia Coriani,            Technical Univ. of Denmark,   Denmark     (CC and RESPONS modules)
  Janusz Cukras,            University of Warsaw,         Poland      (MChD in RESPONS)
  Paal Dahle,               University of Oslo,           Norway      (Parallelization)
  Erik K. Dalskov,          UNI-C,                        Denmark     (SOPPA)
  Thomas Enevoldsen,        Univ. of Southern Denmark,    Denmark     (SOPPA)
  Janus J. Eriksen,         Aarhus University,            Denmark     (Polarizable embedding, TDA)
  Rasmus Faber,             Technical Univ. of Denmark,   Denmark     (Vib.avg. NMR w. SOPPA, parallel AO-SOPPA, CVS-CC and EOMCC)
  Tobias Fahleson,          KTH Stockholm,                Sweden      (Damped cubic response)
  Berta Fernandez,          U. of Santiago de Compostela, Spain       (Doublet spin, ESR in RESPONS)
  Lara Ferrighi,            Aarhus University,            Denmark     (PCM Cubic response)
  Heike Fliegl,             University of Oslo,           Norway      (CCSD(R12))
  Luca Frediani,            UiT The Arctic U. of Norway,  Norway      (PCM)
  Emmanuel Fromager,        Univ. Strasbourg,             France      (MC-srDFT)
  Bin Gao,                  UiT The Arctic U. of Norway,  Norway      (Gen1Int library)
  Andre S. P. Gomes,        CNRS/Universite de Lille,     France      (Frozen density embedding)
  Christof Haettig,         Ruhr-University Bochum,       Germany     (CC module)
  Kasper Hald,              Aarhus University,            Denmark     (CC module)
  Asger Halkier,            Aarhus University,            Denmark     (CC module)
  Frederik Beyer Hansen,    University of Copenhagen,     Denmark     (Parallel AO-SOPPA)
  Erik D. Hedegaard,        Univ. of Southern Denmark,    Denmark     (Polarizable embedding, QM/MM, and MC-srDFT)
  Hanne Heiberg,            University of Oslo,           Norway      (Geometry analysis, selected one-electron integrals)
  Trygve Helgaker,          University of Oslo,           Norway      (DALTON; ABACUS, ERI, DFT modules, London, and much more)
  Alf Christian Hennum,     University of Oslo,           Norway      (Parity violation)
  Hinne Hettema,            University of Auckland,       New Zealand (Quadratic response in RESPONS; SIRIUS supersymmetry)
  Eirik Hjertenaes,         NTNU,                         Norway      (Cholesky decomposition)
  Pi A. B. Haase,           University of Copenhagen,     Denmark     (Triplet AO-SOPPA)
  Maria Francesca Iozzi,    University of Oslo,           Norway      (RPA)
  Christoph Jacob           TU Braunschweig               Germany     (Frozen density embedding)
  Brano Jansik              Technical Univ. of Ostrava    Czech Rep.  (DFT cubic response)
  Hans Joergen Aa. Jensen,  Univ. of Southern Denmark,    Denmark     (DALTON; SIRIUS, RESPONS, ABACUS, MC-srDFT, and much more)
  Dan Jonsson,              UiT The Arctic U. of Norway,  Norway      (Cubic response in RESPONS module)
  Poul Joergensen,          Aarhus University,            Denmark     (RESPONS, ABACUS, and CC modules)
  Maciej Kaminski,          University of Warsaw,         Poland      (CPPh in RESPONS)
  Joanna Kauczor,           Linkoeping University,        Sweden      (Complex polarization propagator (CPP) module)
  Sheela Kirpekar,          Univ. of Southern Denmark,    Denmark     (Mass-velocity & Darwin integrals)
  Erik Kjellgren,           Univ. of Southern Denmark,    Denmark     (MC-srDFT)
  Wim Klopper,              KIT Karlsruhe,                Germany     (R12 code in CC, SIRIUS, and ABACUS modules)
  Stefan Knecht,            ETH Zurich,                   Switzerland (Parallel CI and MCSCF, MC-srDFT)
  Rika Kobayashi,           Australian National Univ.,    Australia   (DIIS in CC, London in MCSCF)
  Henrik Koch,              NTNU,                         Norway      (CC module, Cholesky decomposition)
  Jacob Kongsted,           Univ. of Southern Denmark,    Denmark     (Polarizable embedding, polarizable density embedding, QM/MM)
  Andrea Ligabue,           University of Modena,         Italy       (CTOCD, AOSOPPA)
  Nanna H. List             Univ. of Southern Denmark,    Denmark     (Polarizable embedding)
  Ola B. Lutnaes,           University of Oslo,           Norway      (DFT Hessian)
  Juan I. Melo,             University of Buenos Aires,   Argentina   (LRESC, Relativistic Effects on NMR Shieldings)
  Kurt V. Mikkelsen,        University of Copenhagen,     Denmark     (MC-SCRF and QM/MM)
  Rolf H. Myhre,            NTNU,                         Norway      (Subsystems and CC3)
  Christian Neiss,          Univ. Erlangen-Nuernberg,     Germany     (CCSD(R12))
  Christian B. Nielsen,     University of Copenhagen,     Denmark     (QM/MM)
  Patrick Norman,           KTH Stockholm,                Sweden      (Cubic response and complex frequency response in RESPONS)
  Jeppe Olsen,              Aarhus University,            Denmark     (SIRIUS CI/density modules)
  Jogvan Magnus H. Olsen,   Aarhus University,            Denmark     (Polarizable embedding and polarizable density embedding)
  Anders Osted,             Copenhagen University,        Denmark     (QM/MM)
  Martin J. Packer,         University of Sheffield,      UK          (SOPPA)
  Filip Pawlowski,          Kazimierz Wielki University,  Poland      (CC3)
  Morten N. Pedersen,       Univ. of Southern Denmark,    Denmark     (Polarizable embedding)
  Thomas B. Pedersen,       University of Oslo,           Norway      (Cholesky decomposition)
  Patricio F. Provasi,      University of Northeastern,   Argentina   (Analysis of coupling constants in localized orbitals)
  Peter Reinholdt,          Univ. of Southern Denmark,    Denmark     (Polarizable embedding and polarizable density embedding)
  Zilvinas Rinkevicius,     KTH Stockholm,                Sweden      (open-shell DFT, ESR)
  Elias Rudberg,            KTH Stockholm,                Sweden      (DFT grid and basis info)
  Torgeir A. Ruden,         University of Oslo,           Norway      (Numerical derivatives in ABACUS)
  Kenneth Ruud,             UiT The Arctic U. of Norway,  Norway      (DALTON; ABACUS magnetic properties and much more)
  Pawel Salek,              KTH Stockholm,                Sweden      (DALTON; DFT code)
  Claire C. M. Samson       University of Karlsruhe       Germany     (Boys localization, r12 integrals in ERI)
  Alfredo Sanchez de Meras, University of Valencia,       Spain       (CC module, Cholesky decomposition)
  Trond Saue,               Paul Sabatier University,     France      (direct Fock matrix construction)
  Stephan P. A. Sauer,      University of Copenhagen,     Denmark     (SOPPA(CCSD), SOPPA prop., AOSOPPA, vibrational g-factors)
  Bernd Schimmelpfennig,    Forschungszentrum Karlsruhe,  Germany     (AMFI module)
  Anna K. Schnack-Petersen, University of Copenhagen,     Denmark     (RPA(D) and HRPA(D) properties in AOSOPPA)
  Kristian Sneskov,         Aarhus University,            Denmark     (Polarizable embedding, QM/MM)
  Arnfinn H. Steindal,      UiT The Arctic U. of Norway,  Norway      (parallel QM/MM, polarizable embedding)
  Casper Steinmann,         Aalborg University,           Denmark     (QFIT, polarizable embedding)
  K. O. Sylvester-Hvid,     University of Copenhagen,     Denmark     (MC-SCRF)
  Peter R. Taylor,          VLSCI/Univ. of Melbourne,     Australia   (Symmetry handling ABACUS, integral transformation)
  Andrew M. Teale,          University of Nottingham,     England     (DFT-AC, DFT-D)
  David P. Tew,             University of Bristol,        England     (CCSD(R12))
  Julien Toulouse,          Sorbonne Univ.,               France      (MC-srDFT)
  Olav Vahtras,             KTH Stockholm,                Sweden      (Triplet response, spin-orbit, ESR, TDDFT, open-shell DFT)
  Lucas Visscher,           Vrije Universiteit Amsterdam, Netherlands (Frozen density embedding)
  David J. Wilson,          La Trobe University,          Australia   (DFT Hessian and DFT magnetizabilities)
  Hans Agren,               KTH Stockholm,                Sweden      (SIRIUS module, RESPONS, MC-SCRF solvation)
 --------------------------------------------------------------------------------

     Date and time (Linux)  : Wed Jan 11 14:16:11 2023
     Host name              : cn041                                   

 * Work memory size             :    64000000 =  488.28 megabytes.

 * Directories for basis set searches:
   1) /gpfs/projects/rjh/adrian/fd_compare/dalton/hf/LiCl/dipole
   2) /gpfs/projects/rjh/adrian/dalton/build/basis


Compilation information
-----------------------

 Who compiled             | ahurtado
 Host                     | sn-mem
 System                   | Linux-3.10.0-1160.24.1.el7.x86_64
 CMake generator          | Unix Makefiles
 Processor                | x86_64
 64-bit integers          | OFF
 MPI                      | ON
 Fortran compiler         | /gpfs/software/intel/oneAPI/2021_4/mpi/2021.4.0/bi
                          | n/mpif90
 Fortran compiler version | GNU Fortran (GCC) 11.2.0
 C compiler               | /gpfs/software/intel/oneAPI/2021_4/mpi/2021.4.0/bi
                          | n/mpicc
 C compiler version       | gcc (GCC) 11.2.0
 C++ compiler             | /gpfs/software/intel/oneAPI/2021_4/mpi/2021.4.0/bi
                          | n/mpicxx
 C++ compiler version     | unknown
 BLAS                     | /gpfs/software/intel/oneAPI/2021_4/mkl/2021.4.0/li
                          | b/intel64/libmkl_gf_lp64.so;/gpfs/software/intel/o
                          | neAPI/2021_4/mkl/2021.4.0/lib/intel64/libmkl_seque
                          | ntial.so;/gpfs/software/intel/oneAPI/2021_4/mkl/20
                          | 21.4.0/lib/intel64/libmkl_core.so;/usr/lib64/libpt
                          | hread.so;/usr/lib64/libm.so
 LAPACK                   | /gpfs/software/intel/oneAPI/2021_4/mkl/2021.4.0/li
                          | b/intel64/libmkl_lapack95_lp64.a;/gpfs/software/in
                          | tel/oneAPI/2021_4/mkl/2021.4.0/lib/intel64/libmkl_
                          | gf_lp64.so
 Static linking           | OFF
 Last Git revision        | 66052b3af5ea7225e31178bf9a8b031913c72190
 Git branch               | (HEAD detached at Dalton2020.0)
 Configuration time       | 2023-01-11 13:33:37.731835

 * MPI parallel run using 20 processes.


   Content of the .dal input file
 ----------------------------------

**DALTON INPUT
.RUN RESPONSE
.DIRECT
**WAVE FUNCTIONS
.HF
**RESPONSE
*LINEAR
.DIPLEN
.FREQUENCIES
9
0.0 0.0136945625 0.027389125 0.0410836875 0.05477825 0.06847281250000001 0.082167375 0.0958619375 0.
**END OF DALTON INPUT


   Content of the .mol file
 ----------------------------

BASIS
aug-cc-pCVQZ
blah
blah
Atomtype=2 Atomic
Charge=3 Atoms=1
Li_a 0.000000000000 0.000000000000 0.000000000000
Charge=17 Atoms=1
Cl_a 0.000000000000 0.000000000000 3.818500000000


       *******************************************************************
       *********** Output from DALTON general input processing ***********
       *******************************************************************

 --------------------------------------------------------------------------------
   Overall default print level:    0
   Print level for DALTON.STAT:    1

    Parallel calculation using MPI
    AO-direct calculation (in sections where implemented)
    HERMIT 1- and 2-electron integral sections will be executed
    "Old" integral transformation used (limited to max 255 basis functions)
    Wave function sections will be executed (SIRIUS module)
    Dynamic molecular response properties section will be executed (RESPONSE module)
 --------------------------------------------------------------------------------


   ****************************************************************************
   *************** Output of molecule and basis set information ***************
   ****************************************************************************


    The two title cards from your ".mol" input:
    ------------------------------------------------------------------------
 1: blah                                                                    
 2: blah                                                                    
    ------------------------------------------------------------------------

  Atomic type no.    1
  --------------------
  Nuclear charge:   3.00000
  Number of symmetry independent centers:    1
  Number of basis sets to read;    2
  Basis set file used for this atomic type with Z =   3 :
     "/gpfs/projects/rjh/adrian/dalton/build/basis/aug-cc-pCVQZ"

  Atomic type no.    2
  --------------------
  Nuclear charge:  17.00000
  Number of symmetry independent centers:    1
  Number of basis sets to read;    2
  Basis set file used for this atomic type with Z =  17 :
     "/gpfs/projects/rjh/adrian/dalton/build/basis/aug-cc-pCVQZ"


                      SYMADD: Requested addition of symmetry
                      --------------------------------------

 Symmetry test threshold:  5.00E-06

@   The molecule is centered at center of mass and rotated
@   so principal axes of inertia are along coordinate axes.

 Symmetry class found: C(oo,v)        

 Symmetry Independent Centres             
 ----------------------------
Cl_a  17 :      0.00000000     0.00000000     0.63810184  Isotope  1
Li_a   3 :      0.00000000     0.00000000    -3.18039816  Isotope  1

 The following symmetry elements were found:   X  Y     


                         SYMGRP: Point group information
                         -------------------------------

@    Full point group is: C(oo,v)        
@    Represented as:      C2v

@  * The irrep name for each symmetry:    1: A1     2: B1     3: B2     4: A2 

   * The point group was generated by:

      Reflection in the yz-plane
      Reflection in the xz-plane

   * Group multiplication table

        |  E   C2z  Oxz  Oyz
   -----+--------------------
     E  |  E   C2z  Oxz  Oyz
    C2z | C2z   E   Oyz  Oxz
    Oxz | Oxz  Oyz   E   C2z
    Oyz | Oyz  Oxz  C2z   E 

   * Character table

        |  E   C2z  Oxz  Oyz
   -----+--------------------
    A1  |   1    1    1    1
    B1  |   1   -1    1   -1
    B2  |   1   -1   -1    1
    A2  |   1    1   -1   -1

   * Direct product table

        | A1   B1   B2   A2 
   -----+--------------------
    A1  | A1   B1   B2   A2 
    B1  | B1   A1   A2   B2 
    B2  | B2   A2   A1   B1 
    A2  | A2   B2   B1   A1 


                                 Isotopic Masses
                                 ---------------

                           Li_a        7.016005
                           Cl_a       34.968853

                       Total mass:    41.984858 amu
                       Natural abundance:  70.087 %

 Center-of-mass coordinates (a.u.):    0.000000    0.000000    0.000000
 Center-of-mass coordinates (Angs):    0.000000    0.000000    0.000000


  Atoms and basis sets
  --------------------

  Number of atom types :    2
  Total number of atoms:    2

  Basis set used is "aug-cc-pCVQZ" from the basis set library.

  label    atoms   charge   prim   cont     basis
  ----------------------------------------------------------------------
  Li          1    3.0000   122   109      [16s10p6d4f2g|9s8p6d4f2g]                          
  Cl          1   17.0000   162   134      [20s15p7d5f3g|10s9p7d5f3g]                         
  ----------------------------------------------------------------------
  total:      2   20.0000   284   243
  ----------------------------------------------------------------------
  Spherical harmonic basis used.

  Threshold for neglecting AO integrals:  1.00D-12


  Cartesian Coordinates (a.u.)
  ----------------------------

  Total number of coordinates:    6
  Li_a    :     1  x   0.0000000000    2  y   0.0000000000    3  z  -3.1803981612
  Cl_a    :     4  x   0.0000000000    5  y   0.0000000000    6  z   0.6381018388


  Symmetry Coordinates
  --------------------

  Number of coordinates in each symmetry:     2    2    2    0

  Symmetry  A1  ( 1)

    1   Li_a  z    3
    2   Cl_a  z    6

  Symmetry  B1  ( 2)

    3   Li_a  x    1
    4   Cl_a  x    4

  Symmetry  B2  ( 3)

    5   Li_a  y    2
    6   Cl_a  y    5


   Interatomic separations (in Angstrom):
   --------------------------------------

            Li_a        Cl_a  
            ------      ------
 Li_a  :    0.000000
 Cl_a  :    2.020663    0.000000


  Max    interatomic separation is    2.0207 Angstrom (    3.8185 Bohr)
  between atoms    2 and    1, "Cl_a  " and "Li_a  ".

  Min YX interatomic separation is    2.0207 Angstrom (    3.8185 Bohr)


  Bond distances (Angstrom):
  --------------------------

                  atom 1     atom 2       distance
                  ------     ------       --------
  bond distance:  Cl_a       Li_a         2.020663




 Principal moments of inertia (u*A**2) and principal axes
 --------------------------------------------------------

   IA       0.000000          0.000000    0.000000    1.000000
   IB      23.859781          0.000000    1.000000    0.000000
   IC      23.859781          1.000000    0.000000    0.000000


 Rotational constants
 --------------------

@    The molecule is linear.

               B =        21181.21 MHz     (    0.706529 cm-1)


@  Nuclear repulsion energy :   13.356029854655 Hartree


  Symmetry Orbitals
  -----------------

  Number of orbitals in each symmetry:          95   58   58   32


  Symmetry  A1 ( 1)

    1     Li_a     1s         1
    2     Li_a     1s         2
    3     Li_a     1s         3
    4     Li_a     1s         4
    5     Li_a     1s         5
    6     Li_a     1s         6
    7     Li_a     1s         7
    8     Li_a     1s         8
    9     Li_a     1s         9
   10     Li_a     2pz       12
   11     Li_a     2pz       15
   12     Li_a     2pz       18
   13     Li_a     2pz       21
   14     Li_a     2pz       24
   15     Li_a     2pz       27
   16     Li_a     2pz       30
   17     Li_a     2pz       33
   18     Li_a     3d0       36
   19     Li_a     3d2+      38
   20     Li_a     3d0       41
   21     Li_a     3d2+      43
   22     Li_a     3d0       46
   23     Li_a     3d2+      48
   24     Li_a     3d0       51
   25     Li_a     3d2+      53
   26     Li_a     3d0       56
   27     Li_a     3d2+      58
   28     Li_a     3d0       61
   29     Li_a     3d2+      63
   30     Li_a     4f0       67
   31     Li_a     4f2+      69
   32     Li_a     4f0       74
   33     Li_a     4f2+      76
   34     Li_a     4f0       81
   35     Li_a     4f2+      83
   36     Li_a     4f0       88
   37     Li_a     4f2+      90
   38     Li_a     5g0       96
   39     Li_a     5g2+      98
   40     Li_a     5g4+     100
   41     Li_a     5g0      105
   42     Li_a     5g2+     107
   43     Li_a     5g4+     109
   44     Cl_a     1s       110
   45     Cl_a     1s       111
   46     Cl_a     1s       112
   47     Cl_a     1s       113
   48     Cl_a     1s       114
   49     Cl_a     1s       115
   50     Cl_a     1s       116
   51     Cl_a     1s       117
   52     Cl_a     1s       118
   53     Cl_a     1s       119
   54     Cl_a     2pz      122
   55     Cl_a     2pz      125
   56     Cl_a     2pz      128
   57     Cl_a     2pz      131
   58     Cl_a     2pz      134
   59     Cl_a     2pz      137
   60     Cl_a     2pz      140
   61     Cl_a     2pz      143
   62     Cl_a     2pz      146
   63     Cl_a     3d0      149
   64     Cl_a     3d2+     151
   65     Cl_a     3d0      154
   66     Cl_a     3d2+     156
   67     Cl_a     3d0      159
   68     Cl_a     3d2+     161
   69     Cl_a     3d0      164
   70     Cl_a     3d2+     166
   71     Cl_a     3d0      169
   72     Cl_a     3d2+     171
   73     Cl_a     3d0      174
   74     Cl_a     3d2+     176
   75     Cl_a     3d0      179
   76     Cl_a     3d2+     181
   77     Cl_a     4f0      185
   78     Cl_a     4f2+     187
   79     Cl_a     4f0      192
   80     Cl_a     4f2+     194
   81     Cl_a     4f0      199
   82     Cl_a     4f2+     201
   83     Cl_a     4f0      206
   84     Cl_a     4f2+     208
   85     Cl_a     4f0      213
   86     Cl_a     4f2+     215
   87     Cl_a     5g0      221
   88     Cl_a     5g2+     223
   89     Cl_a     5g4+     225
   90     Cl_a     5g0      230
   91     Cl_a     5g2+     232
   92     Cl_a     5g4+     234
   93     Cl_a     5g0      239
   94     Cl_a     5g2+     241
   95     Cl_a     5g4+     243


  Symmetry  B1 ( 2)

   96     Li_a     2px       10
   97     Li_a     2px       13
   98     Li_a     2px       16
   99     Li_a     2px       19
  100     Li_a     2px       22
  101     Li_a     2px       25
  102     Li_a     2px       28
  103     Li_a     2px       31
  104     Li_a     3d1+      37
  105     Li_a     3d1+      42
  106     Li_a     3d1+      47
  107     Li_a     3d1+      52
  108     Li_a     3d1+      57
  109     Li_a     3d1+      62
  110     Li_a     4f1+      68
  111     Li_a     4f3+      70
  112     Li_a     4f1+      75
  113     Li_a     4f3+      77
  114     Li_a     4f1+      82
  115     Li_a     4f3+      84
  116     Li_a     4f1+      89
  117     Li_a     4f3+      91
  118     Li_a     5g1+      97
  119     Li_a     5g3+      99
  120     Li_a     5g1+     106
  121     Li_a     5g3+     108
  122     Cl_a     2px      120
  123     Cl_a     2px      123
  124     Cl_a     2px      126
  125     Cl_a     2px      129
  126     Cl_a     2px      132
  127     Cl_a     2px      135
  128     Cl_a     2px      138
  129     Cl_a     2px      141
  130     Cl_a     2px      144
  131     Cl_a     3d1+     150
  132     Cl_a     3d1+     155
  133     Cl_a     3d1+     160
  134     Cl_a     3d1+     165
  135     Cl_a     3d1+     170
  136     Cl_a     3d1+     175
  137     Cl_a     3d1+     180
  138     Cl_a     4f1+     186
  139     Cl_a     4f3+     188
  140     Cl_a     4f1+     193
  141     Cl_a     4f3+     195
  142     Cl_a     4f1+     200
  143     Cl_a     4f3+     202
  144     Cl_a     4f1+     207
  145     Cl_a     4f3+     209
  146     Cl_a     4f1+     214
  147     Cl_a     4f3+     216
  148     Cl_a     5g1+     222
  149     Cl_a     5g3+     224
  150     Cl_a     5g1+     231
  151     Cl_a     5g3+     233
  152     Cl_a     5g1+     240
  153     Cl_a     5g3+     242


  Symmetry  B2 ( 3)

  154     Li_a     2py       11
  155     Li_a     2py       14
  156     Li_a     2py       17
  157     Li_a     2py       20
  158     Li_a     2py       23
  159     Li_a     2py       26
  160     Li_a     2py       29
  161     Li_a     2py       32
  162     Li_a     3d1-      35
  163     Li_a     3d1-      40
  164     Li_a     3d1-      45
  165     Li_a     3d1-      50
  166     Li_a     3d1-      55
  167     Li_a     3d1-      60
  168     Li_a     4f3-      64
  169     Li_a     4f1-      66
  170     Li_a     4f3-      71
  171     Li_a     4f1-      73
  172     Li_a     4f3-      78
  173     Li_a     4f1-      80
  174     Li_a     4f3-      85
  175     Li_a     4f1-      87
  176     Li_a     5g3-      93
  177     Li_a     5g1-      95
  178     Li_a     5g3-     102
  179     Li_a     5g1-     104
  180     Cl_a     2py      121
  181     Cl_a     2py      124
  182     Cl_a     2py      127
  183     Cl_a     2py      130
  184     Cl_a     2py      133
  185     Cl_a     2py      136
  186     Cl_a     2py      139
  187     Cl_a     2py      142
  188     Cl_a     2py      145
  189     Cl_a     3d1-     148
  190     Cl_a     3d1-     153
  191     Cl_a     3d1-     158
  192     Cl_a     3d1-     163
  193     Cl_a     3d1-     168
  194     Cl_a     3d1-     173
  195     Cl_a     3d1-     178
  196     Cl_a     4f3-     182
  197     Cl_a     4f1-     184
  198     Cl_a     4f3-     189
  199     Cl_a     4f1-     191
  200     Cl_a     4f3-     196
  201     Cl_a     4f1-     198
  202     Cl_a     4f3-     203
  203     Cl_a     4f1-     205
  204     Cl_a     4f3-     210
  205     Cl_a     4f1-     212
  206     Cl_a     5g3-     218
  207     Cl_a     5g1-     220
  208     Cl_a     5g3-     227
  209     Cl_a     5g1-     229
  210     Cl_a     5g3-     236
  211     Cl_a     5g1-     238


  Symmetry  A2 ( 4)

  212     Li_a     3d2-      34
  213     Li_a     3d2-      39
  214     Li_a     3d2-      44
  215     Li_a     3d2-      49
  216     Li_a     3d2-      54
  217     Li_a     3d2-      59
  218     Li_a     4f2-      65
  219     Li_a     4f2-      72
  220     Li_a     4f2-      79
  221     Li_a     4f2-      86
  222     Li_a     5g4-      92
  223     Li_a     5g2-      94
  224     Li_a     5g4-     101
  225     Li_a     5g2-     103
  226     Cl_a     3d2-     147
  227     Cl_a     3d2-     152
  228     Cl_a     3d2-     157
  229     Cl_a     3d2-     162
  230     Cl_a     3d2-     167
  231     Cl_a     3d2-     172
  232     Cl_a     3d2-     177
  233     Cl_a     4f2-     183
  234     Cl_a     4f2-     190
  235     Cl_a     4f2-     197
  236     Cl_a     4f2-     204
  237     Cl_a     4f2-     211
  238     Cl_a     5g4-     217
  239     Cl_a     5g2-     219
  240     Cl_a     5g4-     226
  241     Cl_a     5g2-     228
  242     Cl_a     5g4-     235
  243     Cl_a     5g2-     237

  Symmetries of electric field:  B1 (2)  B2 (3)  A1 (1)

  Symmetries of magnetic field:  B2 (3)  B1 (2)  A2 (4)


                     .---------------------------------------.
                     | Starting in Integral Section (HERMIT) |
                     `---------------------------------------'



 ***************************************************************************************
 ****************** Output from **INTEGRALS input processing (HERMIT) ******************
 ***************************************************************************************


 - Using defaults, no **INTEGRALS input found

 Default print level:        1

 Calculation of one-electron Hamiltonian integrals.

 Center of mass  (bohr):      0.000000000000      0.000000000000      0.000000000000
 Operator center (bohr):      0.000000000000      0.000000000000      0.000000000000
 Gauge origin    (bohr):      0.000000000000      0.000000000000      0.000000000000
 Dipole origin   (bohr):      0.000000000000      0.000000000000      0.000000000000


     ************************************************************************
     ************************** Output from HERINT **************************
     ************************************************************************



                      Nuclear contribution to dipole moments
                      --------------------------------------

                 au               Debye          C m (/(10**-30)

      z      1.30653678         3.32088503        11.07728009


  Time used in GABGEN     is       0.76 seconds
  Total CPU  time used in HERMIT:   1.14 seconds
  Total wall time used in HERMIT:   1.15 seconds


                        .----------------------------------.
                        | End of Integral Section (HERMIT) |
                        `----------------------------------'



                   .--------------------------------------------.
                   | Starting in Wave Function Section (SIRIUS) |
                   `--------------------------------------------'


 *** Output from Huckel module :

     Using EWMO model:          T
     Using EHT  model:          F
     Number of Huckel orbitals each symmetry:   10    4    4    1

 EWMO - Energy Weighted Maximum Overlap - is a Huckel type method,
        which normally is better than Extended Huckel Theory.
 Reference: Linderberg and Ohrn, Propagators in Quantum Chemistry (Wiley, 1973)

 Huckel EWMO eigenvalues for symmetry :  1
         -104.883964     -10.609452      -8.072241      -2.486708      -1.123908
           -0.513960      -0.171611      -0.085660      -0.055556      -0.054851

 Huckel EWMO eigenvalues for symmetry :  2
           -8.072216      -0.518935      -0.119286      -0.053719

 Huckel EWMO eigenvalues for symmetry :  3
           -8.072216      -0.518935      -0.119286      -0.053719

 Huckel EWMO eigenvalues for symmetry :  4
           -0.055556

 **********************************************************************
 *SIRIUS* a direct, restricted step, second order MCSCF program       *
 **********************************************************************

 
     Date and time (Linux)  : Wed Jan 11 14:16:12 2023
     Host name              : cn041                                   

 Title lines from ".mol" input file:
     blah                                                                    
     blah                                                                    

 Print level on unit LUPRI =   2 is   0
 Print level on unit LUW4  =   2 is   5

@    Restricted, closed shell Hartree-Fock calculation.

@    Time-dependent Hartree-Fock calculation (random phase approximation).
 Fock matrices are calculated directly and in parallel without use of integrals on disk.

 Initial molecular orbitals are obtained according to
 ".MOSTART EWMO  " input option

     Wave function specification
     ============================
@    Wave function type        --- HF ---
@    Number of closed shell electrons          20
@    Number of electrons in active shells       0
@    Total charge of the molecule               0

@    Spin multiplicity and 2 M_S                1         0
@    Total number of symmetries                 4 (point group: C2v)
@    Reference state symmetry                   1 (irrep name : A1 )

     Orbital specifications
     ======================
@    Abelian symmetry species          All |    1    2    3    4
@                                          |  A1   B1   B2   A2 
                                       --- |  ---  ---  ---  ---
@    Total number of orbitals          243 |   95   58   58   32
@    Number of basis functions         243 |   95   58   58   32

      ** Automatic occupation of RHF orbitals **

      -- Initial occupation of symmetries is determined from extended Huckel guess.           
      -- Initial occupation of symmetries is :
@    Occupied SCF orbitals              10 |    6    2    2    0

     Maximum number of Fock   iterations      0
     Maximum number of DIIS   iterations     60
     Maximum number of QC-SCF iterations     60
     Threshold for SCF convergence     1.00D-05


 ***********************************************
 ***** DIIS acceleration of SCF iterations *****
 ***********************************************

 C1-DIIS algorithm; max error vectors =    8

 Automatic occupation of symmetries with  20 electrons.

 Iter     Total energy    Error norm  Delta(E)    SCF occupation
 -----------------------------------------------------------------------------
   1  Screening settings (-IFTHRS, JTDIIS, DIFDEN, times)   -8    1    T  1.35D+00  1.35D+00
@  1  -467.007459229       1.87D+00  -4.67D+02     6   2   2   0
      Virial theorem: -V/T =      1.997058
@    MULPOP   Li_a    1.00; Cl_a   -1.00; 
   1  Level shift: doubly occupied orbital energies shifted by -2.00D-01
 -----------------------------------------------------------------------------
   2  Screening settings (-IFTHRS, JTDIIS, DIFDEN, times)   -8    2    T  1.40D+00  1.40D+00
@  2  -467.050961139       2.55D-01  -4.35D-02     6   2   2   0
      Virial theorem: -V/T =      2.000928
@    MULPOP   Li_a    0.71; Cl_a   -0.71; 
   2  Level shift: doubly occupied orbital energies shifted by -5.00D-02
 -----------------------------------------------------------------------------
   3  Screening settings (-IFTHRS, JTDIIS, DIFDEN, times)   -8    3    T  1.39D+00  1.39D+00
@  3  -467.054854852       7.19D-02  -3.89D-03     6   2   2   0
      Virial theorem: -V/T =      1.999672
@    MULPOP   Li_a    0.67; Cl_a   -0.67; 
   3  Level shift: doubly occupied orbital energies shifted by -2.50D-02
 -----------------------------------------------------------------------------
   4  Screening settings (-IFTHRS, JTDIIS, DIFDEN, times)  -12    4    F  1.41D+00  1.42D+00
@  4  -467.055380255       2.00D-02  -5.25D-04     6   2   2   0
      Virial theorem: -V/T =      2.000014
@    MULPOP   Li_a    0.66; Cl_a   -0.66; 
   4  Level shift: doubly occupied orbital energies shifted by -1.25D-02
 -----------------------------------------------------------------------------
   5  Screening settings (-IFTHRS, JTDIIS, DIFDEN, times)  -12    5    T  1.44D+00  1.44D+00
@  5  -467.055489347       4.57D-03  -1.09D-04     6   2   2   0
      Virial theorem: -V/T =      1.999971
@    MULPOP   Li_a    0.65; Cl_a   -0.65; 
 -----------------------------------------------------------------------------
   6  Screening settings (-IFTHRS, JTDIIS, DIFDEN, times)  -12    6    T  1.43D+00  1.43D+00
@  6  -467.055496316       1.19D-03  -6.97D-06     6   2   2   0
      Virial theorem: -V/T =      1.999979
@    MULPOP   Li_a    0.65; Cl_a   -0.65; 
 -----------------------------------------------------------------------------
   7  Screening settings (-IFTHRS, JTDIIS, DIFDEN, times)  -12    7    T  1.41D+00  1.41D+00
@  7  -467.055496753       2.76D-04  -4.38D-07     6   2   2   0
      Virial theorem: -V/T =      1.999979
@    MULPOP   Li_a    0.65; Cl_a   -0.65; 
 -----------------------------------------------------------------------------
   8  Screening settings (-IFTHRS, JTDIIS, DIFDEN, times)  -12    8    T  1.41D+00  1.41D+00
@  8  -467.055496764       5.51D-05  -1.06D-08     6   2   2   0
      Virial theorem: -V/T =      1.999979
@    MULPOP   Li_a    0.65; Cl_a   -0.65; 
 -----------------------------------------------------------------------------
   9  Screening settings (-IFTHRS, JTDIIS, DIFDEN, times)  -12    9    T  1.40D+00  1.40D+00
@  9  -467.055496765       1.57D-05  -5.35D-10     6   2   2   0
      Virial theorem: -V/T =      1.999979
@    MULPOP   Li_a    0.65; Cl_a   -0.65; 
 -----------------------------------------------------------------------------
  10  Screening settings (-IFTHRS, JTDIIS, DIFDEN, times)  -12   10    T  1.39D+00  1.39D+00
@ 10  -467.055496765       3.46D-06  -2.48D-11     6   2   2   0

@ *** DIIS converged in  10 iterations !
@     Converged SCF energy, gradient:   -467.055496764539    3.46D-06
    - total time used in SIRFCK :              0.00 seconds


 *** SCF orbital energy analysis ***

 Only the 20 lowest virtual orbital energies printed in each symmetry.

 Number of electrons :   20
 Orbital occupations :    6    2    2    0

 Sym       Hartree-Fock orbital energies

1 A1   -104.72895986   -10.45506634    -7.92155796    -2.47876097    -0.97285362
         -0.40804413    -0.01531240     0.01465889     0.02236628     0.05580471
          0.07516627     0.08489016     0.09058228     0.14066384     0.16735844
          0.20659598     0.22523391     0.24125031     0.25565498     0.30156175
          0.36160442     0.40328440     0.41510092     0.49074249     0.51796737
          0.55380178

2 B1     -7.92130320    -0.38011039     0.01275445     0.04242653     0.08031229
          0.12124792     0.15804577     0.21115923     0.22284446     0.28889892
          0.31086773     0.42976542     0.51756738     0.57422026     0.60084406
          0.60628091     0.65153763     0.71480969     0.89763200     0.99217101
          1.11536469     1.24210771

3 B2     -7.92130320    -0.38011039     0.01275445     0.04242653     0.08031229
          0.12124792     0.15804577     0.21115923     0.22284446     0.28889892
          0.31086773     0.42976542     0.51756738     0.57422026     0.60084406
          0.60628091     0.65153763     0.71480969     0.89763200     0.99217101
          1.11536469     1.24210771

4 A2      0.07516627     0.20659598     0.24125031     0.40328440     0.51796737
          0.55380178     0.62053993     0.62510454     0.84707277     1.19144799
          1.40871461     1.44730129     1.53687072     1.59086882     1.85675454
          1.95038412     2.38813830     2.47732726     4.31806873     4.81280450

    E(LUMO) :    -0.01531240 au (symmetry 1)
  - E(HOMO) :    -0.38011039 au (symmetry 2)
  ------------------------------------------
    gap     :     0.36479800 au

 --- Writing SIRIFC interface file

 CPU and wall time for SCF :      14.163      14.189


                       .-----------------------------------.
                       | --- Final results from SIRIUS --- |
                       `-----------------------------------'


@    Spin multiplicity:           1
@    Spatial symmetry:            1 ( irrep  A1  in C2v )
@    Total charge of molecule:    0

@    Final HF energy:            -467.055496764539                 
@    Nuclear repulsion:            13.356029854655
@    Electronic energy:          -480.411526619194

@    Final gradient norm:           0.000003457789

 
     Date and time (Linux)  : Wed Jan 11 14:16:26 2023
     Host name              : cn041                                   

File label for MO orbitals:  11Jan23   FOCKDIIS

 (Only coefficients > 0.0100 are printed.)

 Molecular orbitals for symmetry species 1  (A1 )
 ------------------------------------------------

    Orbital         1        2        3        4        5        6        7
   1 Li_a:1s    -0.0008   0.0016   0.0030  -1.0300  -0.0282   0.0139  -0.0484
   2 Li_a:1s    -0.0014   0.0028   0.0052  -0.0582   0.0261   0.1778  -0.1929
   3 Li_a:1s     0.0000  -0.0027   0.0044  -0.0173   0.0100   0.0797  -0.0782
   4 Li_a:1s     0.0001  -0.0009   0.0013   0.0104   0.0095   0.0713  -0.3588
   5 Li_a:1s    -0.0000   0.0001   0.0003  -0.0014   0.0019   0.0048  -0.4276
   8 Li_a:1s    -0.0004   0.0008   0.0015  -0.0207  -0.0032   0.0213  -0.0289
   9 Li_a:1s    -0.0000   0.0000  -0.0000   0.0002  -0.0002  -0.0001  -0.4222
  11 Li_a:2pz    0.0000   0.0001   0.0002   0.0057   0.0120   0.0404   0.0251
  14 Li_a:2pz   -0.0002  -0.0011   0.0036  -0.0061   0.0199   0.1001   0.0252
  15 Li_a:2pz    0.0000  -0.0003   0.0009   0.0026   0.0088   0.0433  -0.0038
  16 Li_a:2pz   -0.0000   0.0002  -0.0000  -0.0001   0.0004  -0.0007   0.2003
  17 Li_a:2pz    0.0000  -0.0000   0.0000  -0.0000  -0.0001   0.0003   0.1900
  24 Li_a:3d0   -0.0002   0.0004   0.0016  -0.0046   0.0083   0.0281  -0.0184
  26 Li_a:3d0   -0.0000   0.0000   0.0005   0.0009   0.0079   0.0263  -0.0612
  28 Li_a:3d0   -0.0000   0.0001   0.0000   0.0002   0.0009   0.0025  -0.0876
  34 Li_a:4f0   -0.0001   0.0004   0.0004  -0.0012   0.0045   0.0121  -0.0040
  36 Li_a:4f0   -0.0000   0.0001   0.0000   0.0004   0.0020   0.0062  -0.0156
  44 Cl_a:1s     1.0001   0.0000   0.0001   0.0000  -0.0001  -0.0000   0.0000
  45 Cl_a:1s    -0.0000   1.0008   0.0016   0.0003  -0.0035  -0.0028   0.0013
  46 Cl_a:1s    -0.0006   0.0032   0.0010  -0.0061   0.9596  -0.0915   0.0400
  48 Cl_a:1s     0.0010  -0.0062  -0.0003   0.0021  -0.0238  -0.0112  -0.0091
  49 Cl_a:1s     0.0002   0.0018  -0.0049   0.0040   0.0256  -0.0833   0.0653
  53 Cl_a:1s    -0.0002   0.0019  -0.0024  -0.0043   0.0117  -0.0465   0.3472
  54 Cl_a:2pz   -0.0002  -0.0008   1.0006  -0.0005   0.0018   0.0037  -0.0022
  55 Cl_a:2pz    0.0001  -0.0006   0.0011   0.0060  -0.0276  -0.9078  -0.0655
  57 Cl_a:2pz   -0.0003   0.0015   0.0003  -0.0011  -0.0015   0.0122  -0.0033
  58 Cl_a:2pz    0.0003  -0.0029   0.0017  -0.0013  -0.0134  -0.0277  -0.0736
  62 Cl_a:2pz    0.0001  -0.0006   0.0003   0.0008  -0.0020  -0.0170  -0.0646
  73 Cl_a:3d0    0.0000   0.0001  -0.0008  -0.0023   0.0092   0.0209   0.0109
  75 Cl_a:3d0   -0.0001   0.0010  -0.0004  -0.0000   0.0061   0.0164   0.0107

    Orbital         8        9       10       11       12       13       14
   1 Li_a:1s     0.3460   0.4311   0.7010  -0.0000   0.7588  -1.6508   0.8027
   2 Li_a:1s     0.6824   0.7519   1.1479  -0.0000   1.1945  -2.7923   1.4749
   3 Li_a:1s     0.2712   0.9070  -1.6909  -0.0000   1.0348  -1.9094   0.9426
   4 Li_a:1s     0.3587   1.5288   5.0695  -0.0000   0.7239  -6.5207  15.8034
   5 Li_a:1s     1.6468   1.8284   0.4126  -0.0000   1.7668  -5.0706  -2.0222
   6 Li_a:1s     0.0067   0.0068   0.0123   0.0000   0.0148  -0.0271   0.0103
   7 Li_a:1s     0.0414   0.0557   0.0852  -0.0000   0.0887  -0.2089   0.1095
   8 Li_a:1s     0.2033   0.2244   0.4087  -0.0000   0.4453  -0.8873   0.3924
   9 Li_a:1s    -1.1949  -1.2739   0.1813   0.0000  -0.7821   0.9727  -0.0524
  11 Li_a:2pz    0.0023   0.0041  -0.1891   0.0000   0.0959   0.0306  -0.3113
  12 Li_a:2pz   -0.0022  -0.0007   0.0186  -0.0000  -0.0059  -0.0059   0.0273
  13 Li_a:2pz   -0.0122  -0.0097   0.0889  -0.0000  -0.0318  -0.0087   0.1320
  14 Li_a:2pz    0.0222   0.6964   0.0982  -0.0000   0.4442  -2.1283   2.5441
  15 Li_a:2pz    0.6325   1.3209   4.5698  -0.0000   2.2596  -6.5284   6.7311
  16 Li_a:2pz   -0.8565   0.4603  -1.8717  -0.0000  -2.6808  -0.8159  -2.7589
  17 Li_a:2pz    1.0880  -1.0188   1.0868   0.0000   0.8161   0.4377   0.3377
  22 Li_a:3d0    0.0119   0.0219  -0.0349   0.0000   0.0303  -0.0455  -0.0261
  23 Li_a:3d2+  -0.0000   0.0000   0.0000   0.0333  -0.0000   0.0000   0.0000
  24 Li_a:3d0    0.0097   0.1853   0.1184  -0.0000   0.0024  -0.5441   0.7274
  25 Li_a:3d2+   0.0000  -0.0000  -0.0000  -0.1580   0.0000  -0.0000  -0.0000
  26 Li_a:3d0    0.2551   0.3329   1.3442  -0.0000   0.5276  -1.6011   1.5972
  27 Li_a:3d2+  -0.0000   0.0000   0.0000   0.3769  -0.0000   0.0000   0.0000
  28 Li_a:3d0   -0.0495   0.4044   1.2373  -0.0000  -1.2358  -1.4127  -1.0924
  29 Li_a:3d2+  -0.0000  -0.0000   0.0000  -1.1885   0.0000   0.0000  -0.0000
  32 Li_a:4f0   -0.0009   0.0446  -0.0231  -0.0000  -0.0114  -0.1151   0.0648
  33 Li_a:4f2+   0.0000  -0.0000  -0.0000   0.0113   0.0000  -0.0000  -0.0000
  34 Li_a:4f0    0.0385   0.0094   0.2589  -0.0000   0.1036  -0.1447   0.3243
  35 Li_a:4f2+   0.0000  -0.0000  -0.0000  -0.0415   0.0000  -0.0000   0.0000
  36 Li_a:4f0    0.0332   0.0859   0.4335  -0.0000  -0.0433  -0.5039   0.1519
  37 Li_a:4f2+  -0.0000   0.0000   0.0000   0.1347   0.0000   0.0000  -0.0000
  38 Li_a:5g0    0.0010   0.0123   0.0053  -0.0000   0.0035  -0.0357   0.0494
  41 Li_a:5g0    0.0138  -0.0089   0.1297   0.0000   0.0186  -0.0379   0.0299
  45 Cl_a:1s    -0.0076  -0.0002  -0.0112   0.0000  -0.0310   0.0101  -0.0589
  46 Cl_a:1s    -0.0485   0.0238   0.0274   0.0000  -0.0451   0.1201  -0.1944
  47 Cl_a:1s    -0.0087  -0.0069  -0.0072  -0.0000  -0.0315   0.0286  -0.0588
  48 Cl_a:1s     0.0613   0.0958   0.0890  -0.0000   0.2418  -0.3010   0.5154
  49 Cl_a:1s    -0.2582  -0.4853  -1.3683   0.0000  -0.6034   2.0576  -2.4958
  51 Cl_a:1s     0.0013   0.0001   0.0027  -0.0000   0.0066  -0.0010   0.0117
  52 Cl_a:1s    -0.0027  -0.0003  -0.0052   0.0000  -0.0129   0.0026  -0.0231
  53 Cl_a:1s    -0.9587  -3.3275  -5.0193   0.0000  -1.9394  12.8404 -12.0734
  54 Cl_a:2pz    0.0093   0.0188   0.0155   0.0000   0.0212  -0.0592   0.0479
  55 Cl_a:2pz    0.0730   0.0777  -0.0048   0.0000   0.0705  -0.1607   0.1604
  56 Cl_a:2pz   -0.0199  -0.0438  -0.0355  -0.0000  -0.0450   0.1395  -0.1101
  57 Cl_a:2pz    0.0031   0.0358   0.0985  -0.0000  -0.0124  -0.1398   0.1696
  58 Cl_a:2pz    0.1613   0.8311   0.0770  -0.0000   0.5369  -2.4772   2.7226
  62 Cl_a:2pz    0.2957   0.6298   0.2753   0.0000   1.9248  -1.8510   6.1066
  71 Cl_a:3d0    0.0037   0.0141  -0.0042   0.0000   0.0062  -0.0393   0.0035
  73 Cl_a:3d0   -0.0241  -0.1050   0.0124  -0.0000  -0.0370   0.3085  -0.1290
  75 Cl_a:3d0   -0.0158  -0.1995   0.3731  -0.0000  -0.2519   0.3913  -0.9125
  76 Cl_a:3d2+   0.0000  -0.0000  -0.0000  -0.0138  -0.0000   0.0000   0.0000
  83 Cl_a:4f0    0.0007   0.0043   0.0090  -0.0000  -0.0091  -0.0168  -0.0069
  85 Cl_a:4f0    0.0115   0.0345  -0.0723   0.0000   0.0538  -0.0688   0.0672
  93 Cl_a:5g0   -0.0030  -0.0045   0.0136  -0.0000  -0.0101   0.0077   0.0012

    Orbital        15       16
   1 Li_a:1s    -0.2537   0.0000
   2 Li_a:1s    -0.5128   0.0000
   3 Li_a:1s     7.5766  -0.0000
   4 Li_a:1s    -9.1479   0.0000
   5 Li_a:1s    -0.6587  -0.0000
   7 Li_a:1s    -0.0236   0.0000
   8 Li_a:1s    -0.2154   0.0000
   9 Li_a:1s    -0.2892   0.0000
  11 Li_a:2pz    0.4617  -0.0000
  12 Li_a:2pz   -0.0414   0.0000
  13 Li_a:2pz   -0.2130   0.0000
  14 Li_a:2pz    2.2418  -0.0000
  15 Li_a:2pz   -8.9474   0.0000
  16 Li_a:2pz    0.8313  -0.0000
  17 Li_a:2pz   -0.5533   0.0000
  22 Li_a:3d0    0.1317  -0.0000
  23 Li_a:3d2+  -0.0000  -0.0383
  24 Li_a:3d0    0.3665  -0.0000
  25 Li_a:3d2+   0.0000   0.1486
  26 Li_a:3d0   -2.8310   0.0000
  27 Li_a:3d2+  -0.0000  -0.3461
  28 Li_a:3d0   -1.9903   0.0000
  29 Li_a:3d2+   0.0000   0.3772
  32 Li_a:4f0    0.1485  -0.0000
  33 Li_a:4f2+   0.0000   0.1135
  34 Li_a:4f0   -0.5426   0.0000
  35 Li_a:4f2+   0.0000  -0.3346
  36 Li_a:4f0   -1.5713   0.0000
  37 Li_a:4f2+   0.0000   1.3083
  38 Li_a:5g0    0.0325  -0.0000
  39 Li_a:5g2+   0.0000  -0.0115
  41 Li_a:5g0   -0.4069   0.0000
  42 Li_a:5g2+  -0.0000   0.0390
  45 Cl_a:1s     0.0267  -0.0000
  46 Cl_a:1s     0.1607  -0.0000
  48 Cl_a:1s     0.0211   0.0000
  49 Cl_a:1s     2.4638   0.0000
  53 Cl_a:1s     5.9384   0.0000
  55 Cl_a:2pz   -0.1628  -0.0000
  56 Cl_a:2pz   -0.0102   0.0000
  57 Cl_a:2pz   -0.1353   0.0000
  58 Cl_a:2pz    2.2001  -0.0000
  62 Cl_a:2pz    2.3272  -0.0000
  70 Cl_a:3d2+  -0.0000   0.0129
  71 Cl_a:3d0    0.0455   0.0000
  72 Cl_a:3d2+   0.0000  -0.0160
  73 Cl_a:3d0   -0.2511   0.0000
  74 Cl_a:3d2+  -0.0000   0.1102
  75 Cl_a:3d0   -1.8364   0.0000
  76 Cl_a:3d2+  -0.0000  -0.3724
  83 Cl_a:4f0   -0.0293  -0.0000
  85 Cl_a:4f0    0.2892  -0.0000
  93 Cl_a:5g0   -0.0413   0.0000

 Molecular orbitals for symmetry species 2  (B1 )
 ------------------------------------------------

    Orbital         1        2        3        4        5        6        7
   2 Li_a:2px    0.0000  -0.0242   0.0039  -0.0115  -0.0169   0.1561  -0.2060
   3 Li_a:2px    0.0000   0.0001   0.0005   0.0027   0.0011  -0.0055   0.0171
   4 Li_a:2px   -0.0000   0.0018   0.0016   0.0219   0.0102  -0.0518   0.0994
   5 Li_a:2px    0.0004  -0.0412   0.0476   0.0546  -0.0837   0.2322   1.0889
   6 Li_a:2px    0.0000  -0.0053   0.2554  -0.5575  -0.4770   2.8859   4.1956
   7 Li_a:2px    0.0000   0.0005  -0.5253   1.8296  -1.9473  -1.9036   1.8709
   8 Li_a:2px   -0.0000   0.0004   1.2625  -1.2885   0.6234   0.8187  -0.2862
  11 Li_a:3d1+   0.0000  -0.0073  -0.0021   0.0087   0.0127  -0.0403   0.0027
  12 Li_a:3d1+   0.0004  -0.0148   0.0097  -0.1136  -0.1518   0.2944   0.4221
  13 Li_a:3d1+   0.0000  -0.0014   0.1379  -0.1494   0.2191   0.2750   2.6191
  14 Li_a:3d1+   0.0000   0.0009  -0.2717  -0.4297  -1.9907   0.6727   1.9174
  17 Li_a:4f1+   0.0002  -0.0052  -0.0107  -0.0007  -0.0510   0.0039   0.0155
  19 Li_a:4f1+   0.0001  -0.0026   0.0588  -0.0786   0.0881   0.2383   0.5252
  21 Li_a:4f1+  -0.0000   0.0021   0.0035  -0.0340  -0.1724   0.2040   1.0231
  23 Li_a:5g1+   0.0001  -0.0016   0.0011  -0.0064  -0.0067   0.0174   0.0193
  25 Li_a:5g1+   0.0000   0.0001   0.0196  -0.0298   0.0132   0.1026   0.2695
  27 Cl_a:2px   -1.0000   0.0018   0.0052  -0.0062   0.0275   0.0121  -0.0134
  28 Cl_a:2px    0.0015  -0.9200  -0.0247  -0.1017   0.1884  -0.0875   0.0923
  29 Cl_a:2px    0.0002   0.0051  -0.0116   0.0115  -0.0561  -0.0278   0.0299
  30 Cl_a:2px   -0.0003  -0.0005   0.0009   0.0004  -0.0048   0.0063   0.0480
  31 Cl_a:2px   -0.0003  -0.0574  -0.1919   0.2836  -0.1173  -1.0157  -2.3232
  35 Cl_a:2px   -0.0000  -0.0271   0.0995   0.1144   2.1125  -0.9788  -6.2678
  40 Cl_a:3d1+  -0.0001   0.0069  -0.0040   0.0030  -0.0026  -0.0329  -0.0227
  41 Cl_a:3d1+   0.0003   0.0131   0.0101  -0.0423  -0.0079   0.0771   0.0974
  42 Cl_a:3d1+   0.0001   0.0105   0.0660  -0.1301  -0.1391   0.4445   1.6835
  49 Cl_a:4f1+  -0.0000  -0.0032   0.0028  -0.0031  -0.0040   0.0156   0.0610
  51 Cl_a:4f1+  -0.0001  -0.0019  -0.0069   0.0267   0.0495  -0.0866  -0.2522
  57 Cl_a:5g1+   0.0000   0.0012  -0.0017  -0.0022  -0.0145   0.0067   0.0202

    Orbital         8        9       10       11       12
   1 Li_a:2px   -0.0000   0.0005   0.0008   0.0050   0.0111
   2 Li_a:2px    0.0000  -0.0164   0.1079  -0.2019  -0.5863
   3 Li_a:2px   -0.0000   0.0010  -0.0024   0.0225   0.0557
   4 Li_a:2px   -0.0000   0.0184   0.0317   0.1508   0.3277
   5 Li_a:2px   -0.0000  -0.2542  -0.5997   1.1087   3.6411
   6 Li_a:2px   -0.0000  -1.6781  -6.8186   1.7823   3.3846
   7 Li_a:2px    0.0000  -1.3871   1.0199   0.8220   0.9069
   8 Li_a:2px   -0.0000   0.2793  -0.4804  -0.1948  -0.1429
  11 Li_a:3d1+  -0.0000   0.0261   0.0504   0.0839  -0.0105
  12 Li_a:3d1+  -0.0000  -0.3840  -1.0183  -0.2950   0.9329
  13 Li_a:3d1+  -0.0000   0.1334  -3.9540   3.0459   3.5159
  14 Li_a:3d1+  -0.0000  -1.9420  -0.9926   0.3585   0.7853
  17 Li_a:4f1+  -0.0000  -0.1953  -0.0277   0.0467   0.1107
  18 Li_a:4f3+  -0.1374  -0.0000  -0.0000  -0.0000  -0.0000
  19 Li_a:4f1+  -0.0000   0.2791  -1.0501   0.0079   1.0213
  20 Li_a:4f3+   0.4209   0.0000   0.0000   0.0000   0.0000
  21 Li_a:4f1+  -0.0000  -1.7189  -1.7138   1.7259   0.8556
  22 Li_a:4f3+  -1.2156  -0.0000   0.0000   0.0000  -0.0000
  23 Li_a:5g1+  -0.0000  -0.0259  -0.0654  -0.0056   0.1184
  24 Li_a:5g3+  -0.0127  -0.0000   0.0000   0.0000   0.0000
  25 Li_a:5g1+  -0.0000  -0.0438  -0.5233   0.1921   0.2583
  26 Li_a:5g3+   0.0615   0.0000  -0.0000  -0.0000  -0.0000
  27 Cl_a:2px   -0.0000  -0.0310  -0.1017   0.1214  -0.0951
  28 Cl_a:2px   -0.0000  -0.1995  -0.2990   0.1869  -0.5352
  29 Cl_a:2px    0.0000   0.0612   0.2185  -0.2711   0.1879
  30 Cl_a:2px    0.0000  -0.0327  -0.0790   0.0787   0.0617
  31 Cl_a:2px    0.0000   0.8832   5.4754  -2.7655  -4.0059
  35 Cl_a:2px    0.0000   3.2621   3.7201  -2.0795  -3.9708
  39 Cl_a:3d1+  -0.0000  -0.0087  -0.0327  -0.0120   0.0347
  40 Cl_a:3d1+   0.0000   0.0122   0.0503  -0.0655   0.0325
  41 Cl_a:3d1+  -0.0000  -0.1372  -0.4451   0.0288   0.3668
  42 Cl_a:3d1+  -0.0000  -0.3087  -2.4608   0.4469   3.6828
  47 Cl_a:4f1+  -0.0000  -0.0038   0.0091   0.0036  -0.0152
  49 Cl_a:4f1+  -0.0000   0.0156  -0.0509  -0.0111   0.1143
  51 Cl_a:4f1+   0.0000   0.1040   0.3725  -0.0018  -0.5990
  55 Cl_a:5g1+   0.0000   0.0094   0.0050  -0.0011  -0.0157
  57 Cl_a:5g1+  -0.0000  -0.0444  -0.0328   0.0055   0.0697

 Molecular orbitals for symmetry species 3  (B2 )
 ------------------------------------------------

    Orbital         1        2        3        4        5        6        7
   2 Li_a:2py    0.0000  -0.0242   0.0039  -0.0115  -0.0169   0.1561  -0.2060
   3 Li_a:2py    0.0000   0.0001   0.0005   0.0027   0.0011  -0.0055   0.0171
   4 Li_a:2py   -0.0000   0.0018   0.0016   0.0219   0.0102  -0.0518   0.0994
   5 Li_a:2py    0.0004  -0.0412   0.0476   0.0546  -0.0837   0.2322   1.0889
   6 Li_a:2py    0.0000  -0.0053   0.2554  -0.5575  -0.4770   2.8859   4.1956
   7 Li_a:2py    0.0000   0.0005  -0.5253   1.8296  -1.9473  -1.9036   1.8709
   8 Li_a:2py   -0.0000   0.0004   1.2625  -1.2885   0.6234   0.8187  -0.2862
  11 Li_a:3d1-   0.0000  -0.0073  -0.0021   0.0087   0.0127  -0.0403   0.0027
  12 Li_a:3d1-   0.0004  -0.0148   0.0097  -0.1136  -0.1518   0.2944   0.4221
  13 Li_a:3d1-   0.0000  -0.0014   0.1379  -0.1494   0.2191   0.2750   2.6191
  14 Li_a:3d1-   0.0000   0.0009  -0.2717  -0.4297  -1.9907   0.6727   1.9174
  18 Li_a:4f1-   0.0002  -0.0052  -0.0107  -0.0007  -0.0510   0.0039   0.0155
  20 Li_a:4f1-   0.0001  -0.0026   0.0588  -0.0786   0.0881   0.2383   0.5252
  22 Li_a:4f1-  -0.0000   0.0021   0.0035  -0.0340  -0.1724   0.2040   1.0231
  24 Li_a:5g1-   0.0001  -0.0016   0.0011  -0.0064  -0.0067   0.0174   0.0193
  26 Li_a:5g1-   0.0000   0.0001   0.0196  -0.0298   0.0132   0.1026   0.2695
  27 Cl_a:2py   -1.0000   0.0018   0.0052  -0.0062   0.0275   0.0121  -0.0134
  28 Cl_a:2py    0.0015  -0.9200  -0.0247  -0.1017   0.1884  -0.0875   0.0923
  29 Cl_a:2py    0.0002   0.0051  -0.0116   0.0115  -0.0561  -0.0278   0.0299
  30 Cl_a:2py   -0.0003  -0.0005   0.0009   0.0004  -0.0048   0.0063   0.0480
  31 Cl_a:2py   -0.0003  -0.0574  -0.1919   0.2836  -0.1173  -1.0157  -2.3232
  35 Cl_a:2py   -0.0000  -0.0271   0.0995   0.1144   2.1125  -0.9788  -6.2678
  40 Cl_a:3d1-  -0.0001   0.0069  -0.0040   0.0030  -0.0026  -0.0329  -0.0227
  41 Cl_a:3d1-   0.0003   0.0131   0.0101  -0.0423  -0.0079   0.0771   0.0974
  42 Cl_a:3d1-   0.0001   0.0105   0.0660  -0.1301  -0.1391   0.4445   1.6835
  50 Cl_a:4f1-  -0.0000  -0.0032   0.0028  -0.0031  -0.0040   0.0156   0.0610
  52 Cl_a:4f1-  -0.0001  -0.0019  -0.0069   0.0267   0.0495  -0.0866  -0.2522
  58 Cl_a:5g1-   0.0000   0.0012  -0.0017  -0.0022  -0.0145   0.0067   0.0202

    Orbital         8        9       10       11       12
   1 Li_a:2py    0.0000   0.0005   0.0008   0.0050   0.0111
   2 Li_a:2py   -0.0000  -0.0164   0.1079  -0.2019  -0.5863
   3 Li_a:2py    0.0000   0.0010  -0.0024   0.0225   0.0557
   4 Li_a:2py    0.0000   0.0184   0.0317   0.1508   0.3277
   5 Li_a:2py    0.0000  -0.2542  -0.5997   1.1087   3.6411
   6 Li_a:2py    0.0000  -1.6781  -6.8186   1.7823   3.3846
   7 Li_a:2py   -0.0000  -1.3871   1.0199   0.8220   0.9069
   8 Li_a:2py    0.0000   0.2793  -0.4804  -0.1948  -0.1429
  11 Li_a:3d1-  -0.0000   0.0261   0.0504   0.0839  -0.0105
  12 Li_a:3d1-   0.0000  -0.3840  -1.0183  -0.2950   0.9329
  13 Li_a:3d1-   0.0000   0.1334  -3.9540   3.0459   3.5159
  14 Li_a:3d1-   0.0000  -1.9420  -0.9926   0.3585   0.7853
  17 Li_a:4f3-  -0.1374   0.0000   0.0000   0.0000   0.0000
  18 Li_a:4f1-  -0.0000  -0.1953  -0.0277   0.0467   0.1107
  19 Li_a:4f3-   0.4209  -0.0000   0.0000  -0.0000  -0.0000
  20 Li_a:4f1-   0.0000   0.2791  -1.0501   0.0079   1.0213
  21 Li_a:4f3-  -1.2156   0.0000  -0.0000  -0.0000   0.0000
  22 Li_a:4f1-   0.0000  -1.7189  -1.7138   1.7259   0.8556
  23 Li_a:5g3-  -0.0127   0.0000  -0.0000  -0.0000  -0.0000
  24 Li_a:5g1-   0.0000  -0.0259  -0.0654  -0.0056   0.1184
  25 Li_a:5g3-   0.0615  -0.0000   0.0000   0.0000   0.0000
  26 Li_a:5g1-   0.0000  -0.0438  -0.5233   0.1921   0.2583
  27 Cl_a:2py    0.0000  -0.0310  -0.1017   0.1214  -0.0951
  28 Cl_a:2py    0.0000  -0.1995  -0.2990   0.1869  -0.5352
  29 Cl_a:2py   -0.0000   0.0612   0.2185  -0.2711   0.1879
  30 Cl_a:2py   -0.0000  -0.0327  -0.0790   0.0787   0.0617
  31 Cl_a:2py   -0.0000   0.8832   5.4754  -2.7655  -4.0059
  35 Cl_a:2py   -0.0000   3.2621   3.7201  -2.0795  -3.9708
  39 Cl_a:3d1-   0.0000  -0.0087  -0.0327  -0.0120   0.0347
  40 Cl_a:3d1-  -0.0000   0.0122   0.0503  -0.0655   0.0325
  41 Cl_a:3d1-   0.0000  -0.1372  -0.4451   0.0288   0.3668
  42 Cl_a:3d1-   0.0000  -0.3087  -2.4608   0.4469   3.6828
  48 Cl_a:4f1-  -0.0000  -0.0038   0.0091   0.0036  -0.0152
  50 Cl_a:4f1-   0.0000   0.0156  -0.0509  -0.0111   0.1143
  52 Cl_a:4f1-  -0.0000   0.1040   0.3725  -0.0018  -0.5990
  56 Cl_a:5g1-  -0.0000   0.0094   0.0050  -0.0011  -0.0157
  58 Cl_a:5g1-   0.0000  -0.0444  -0.0328   0.0055   0.0697

 Molecular orbitals for symmetry species 4  (A2 )
 ------------------------------------------------

    Orbital         1        2        3        4        5        6        7
   3 Li_a:3d2-   0.0333  -0.0383   0.1173   0.0223  -0.0000  -0.0449  -0.2848
   4 Li_a:3d2-  -0.1580   0.1486  -0.4355  -0.0780   0.0000   0.2108   1.9848
   5 Li_a:3d2-   0.3769  -0.3461   1.6828   1.2163   0.0000   0.4129  -1.7902
   6 Li_a:3d2-  -1.1885   0.3772  -0.8304  -0.0279  -0.0000   0.0804   0.5533
   8 Li_a:4f2-   0.0113   0.1135   0.0435   0.0062  -0.0000   0.2208  -0.0044
   9 Li_a:4f2-  -0.0415  -0.3346  -0.1774   0.1388   0.0000  -0.8484  -0.1064
  10 Li_a:4f2-   0.1347   1.3083   0.3823   0.9498  -0.0000   1.0547  -0.0831
  11 Li_a:5g4-  -0.0000   0.0000   0.0000  -0.0000  -0.2310  -0.0000   0.0000
  12 Li_a:5g2-  -0.0053  -0.0115  -0.0130   0.0275   0.0000  -0.1955   0.0539
  13 Li_a:5g4-   0.0000  -0.0000  -0.0000  -0.0000   1.1327  -0.0000   0.0000
  14 Li_a:5g2-   0.0074   0.0390   0.0169   0.1502   0.0000   1.2398  -0.2558
  17 Cl_a:3d2-  -0.0004   0.0001   0.0035  -0.0162   0.0000  -0.0023   0.0031
  18 Cl_a:3d2-  -0.0025   0.0129   0.0124  -0.0090  -0.0000  -0.0194   0.0292
  19 Cl_a:3d2-  -0.0024  -0.0160   0.0224  -0.1753   0.0000  -0.0008  -0.0048
  20 Cl_a:3d2-  -0.0078   0.1102   0.0556   0.2237  -0.0000  -0.0840   0.1658
  21 Cl_a:3d2-  -0.0138  -0.3724  -0.0668  -2.0965   0.0000  -1.0924   0.1249
  24 Cl_a:4f2-   0.0008   0.0010   0.0015   0.0102   0.0000   0.0120  -0.0107
  25 Cl_a:4f2-  -0.0026  -0.0053  -0.0134  -0.0693  -0.0000  -0.0623   0.0320
  26 Cl_a:4f2-  -0.0018   0.0068  -0.0026   0.2021   0.0000   0.1184  -0.0539
  30 Cl_a:5g2-  -0.0016   0.0003  -0.0037   0.0079  -0.0000  -0.0085   0.0120
  31 Cl_a:5g4-   0.0000  -0.0000  -0.0000   0.0000  -0.0123   0.0000  -0.0000
  32 Cl_a:5g2-   0.0051  -0.0035   0.0136  -0.0286   0.0000   0.0355  -0.0403

    Orbital         8        9       10
   3 Li_a:3d2-   0.0106   0.0254   0.0665
   4 Li_a:3d2-  -0.1724  -0.2965  -1.0839
   5 Li_a:3d2-  -1.1894   0.3869  -0.8638
   6 Li_a:3d2-  -0.0250   0.0082  -0.0107
   8 Li_a:4f2-   0.3050   0.2452   0.2661
   9 Li_a:4f2-  -1.7380  -0.7565  -1.8815
  10 Li_a:4f2-  -0.3925   0.4899  -0.2831
  12 Li_a:5g2-   0.1009   0.1619  -0.1916
  14 Li_a:5g2-  -1.3643  -0.3356  -0.8982
  17 Cl_a:3d2-  -0.0109   0.0254   0.0102
  18 Cl_a:3d2-  -0.0530   0.1909   0.0495
  19 Cl_a:3d2-  -0.0501  -0.0026   0.0303
  20 Cl_a:3d2-  -0.2125   1.2361   0.3850
  21 Cl_a:3d2-   2.3900  -0.8668   2.0255
  24 Cl_a:4f2-  -0.0197   0.0155  -0.1164
  25 Cl_a:4f2-   0.1703  -0.0620   0.5736
  26 Cl_a:4f2-  -0.4921   0.2429  -2.3313
  30 Cl_a:5g2-  -0.0090   0.0121  -0.0122
  32 Cl_a:5g2-   0.0165  -0.0541   0.0551

  Total CPU  time used in SIRIUS :  14.25 seconds
  Total wall time used in SIRIUS :  14.28 seconds

 
     Date and time (Linux)  : Wed Jan 11 14:16:26 2023
     Host name              : cn041                                   


                     .---------------------------------------.
                     | End of Wave Function Section (SIRIUS) |
                     `---------------------------------------'



                 .------------------------------------------------.
                 | Starting in Dynamic Property Section (RESPONS) |
                 `------------------------------------------------'


 ----------------------------------------------------------------------------------------
  RESPONSE  -  an MCSCF, MC-srDFT, DFT, SOPPA and SOPPA-srDFT response property program
 ----------------------------------------------------------------------------------------


 -------- OUTPUT FROM RESPONSE INPUT PROCESSING --------




 Linear Response calculation
 ---------------------------

 Print level                                    : IPRLR  =   2
 Maximum number of iterations                   : MAXITL =  60
 Threshold for relative convergence             : THCLR  = 1.000D-03
 Maximum iterations in optimal orbital algorithm: MAXITO =   5

  9 B-frequencies  0.000000D+00  1.369456D-02  2.738913D-02  4.108369D-02  5.477825D-02
  6.847281D-02  8.216738D-02  9.586194D-02  1.095565D-01

    1 second order properties calculated with symmetry no.    1 and labels:

          ZDIPLEN 

    1 second order properties calculated with symmetry no.    2 and labels:

          XDIPLEN 

    1 second order properties calculated with symmetry no.    3 and labels:

          YDIPLEN 


   SCF energy         :     -467.055496764538816
 -- inactive part     :     -480.411526619193808
 -- nuclear repulsion :       13.356029854654969


                     ***************************************
                     *** RHF response calculation (TDHF) ***
                     ***************************************

 ----------------------------------------------------------------
 ----- Linear response calculation
 ----- Symmetry of excitation/property operator(s)    1  ( A1 )
 ----------------------------------------------------------------

 Number of excitations of this symmetry            0
 Number of response properties of this symmetry    1
 Number of C6/C8 properties of this symmetry       0


 Perturbation symmetry.     KSYMOP:           1
 Perturbation spin symmetry.TRPLET:           F
 Orbital variables.         KZWOPT:         758
 Configuration variables.   KZCONF:           0
 Total number of variables. KZVAR :         758


 RSPLR -- linear response calculation for symmetry 1  ( A1 )
 RSPLR -- operator label : ZDIPLEN 
 RSPLR -- operator spin  :   0
 RSPLR -- frequencies    :     0.000000  0.013695  0.027389  0.041084  0.054778
                               0.068473  0.082167  0.095862  0.109557



 ---  SOLVING SETS OF LINEAR EQUATIONS FOR LINEAR RESPONSE PROPERTIES ---

 Operator symmetry = 1  ( A1 ); triplet =   F


 ** RSPCTL MICROITERATION NUMBER    1

       No.  Residual tot.,    conf., and orb.    Bnorm      Frequency 
      ----------------------------------------------------------------
         1    2.29762D+00  0.00D+00  2.30D+00  4.65D+00    0.00000D+00
         2    2.29940D+00  0.00D+00  2.30D+00  4.66D+00    1.36946D-02
         3    2.30477D+00  0.00D+00  2.30D+00  4.69D+00    2.73891D-02
         4    2.31385D+00  0.00D+00  2.31D+00  4.75D+00    4.10837D-02
         5    2.32683D+00  0.00D+00  2.33D+00  4.84D+00    5.47783D-02
         6    2.34402D+00  0.00D+00  2.34D+00  4.95D+00    6.84728D-02
         7    2.36585D+00  0.00D+00  2.37D+00  5.10D+00    8.21674D-02
         8    2.39292D+00  0.00D+00  2.39D+00  5.28D+00    9.58619D-02
         9    2.42603D+00  0.00D+00  2.43D+00  5.50D+00    1.09557D-01

 ** RSPCTL MICROITERATION NUMBER    2

       No.  Residual tot.,    conf., and orb.    Bnorm      Frequency 
      ----------------------------------------------------------------
         1    4.22742D-01  0.00D+00  4.23D-01  4.96D+00    0.00000D+00
         2    4.23546D-01  0.00D+00  4.24D-01  4.97D+00    1.36946D-02
         3    4.25984D-01  0.00D+00  4.26D-01  5.01D+00    2.73891D-02
         4    4.30132D-01  0.00D+00  4.30D-01  5.08D+00    4.10837D-02
         5    4.36124D-01  0.00D+00  4.36D-01  5.18D+00    5.47783D-02
         6    4.44167D-01  0.00D+00  4.44D-01  5.30D+00    6.84728D-02
         7    4.54556D-01  0.00D+00  4.55D-01  5.47D+00    8.21674D-02
         8    4.67711D-01  0.00D+00  4.68D-01  5.67D+00    9.58619D-02
         9    4.84225D-01  0.00D+00  4.84D-01  5.93D+00    1.09557D-01

 ** RSPCTL MICROITERATION NUMBER    3

       No.  Residual tot.,    conf., and orb.    Bnorm      Frequency 
      ----------------------------------------------------------------
         1    8.31269D-02  0.00D+00  8.31D-02  4.97D+00    0.00000D+00
         2    8.33871D-02  0.00D+00  8.34D-02  4.99D+00    1.36946D-02
         3    8.41771D-02  0.00D+00  8.42D-02  5.03D+00    2.73891D-02
         4    8.55254D-02  0.00D+00  8.55D-02  5.09D+00    4.10837D-02
         5    8.74825D-02  0.00D+00  8.75D-02  5.19D+00    5.47783D-02
         6    9.01254D-02  0.00D+00  9.01D-02  5.32D+00    6.84728D-02
         7    9.35651D-02  0.00D+00  9.36D-02  5.49D+00    8.21674D-02
         8    9.79589D-02  0.00D+00  9.80D-02  5.70D+00    9.58619D-02
         9    1.03529D-01  0.00D+00  1.04D-01  5.96D+00    1.09557D-01

 ** RSPCTL MICROITERATION NUMBER    4

       No.  Residual tot.,    conf., and orb.    Bnorm      Frequency 
      ----------------------------------------------------------------
         1    9.40811D-03  0.00D+00  9.41D-03  4.97D+00    0.00000D+00
         2    9.43996D-03  0.00D+00  9.44D-03  4.99D+00    1.36946D-02
         3    9.53682D-03  0.00D+00  9.54D-03  5.03D+00    2.73891D-02
         4    9.70277D-03  0.00D+00  9.70D-03  5.09D+00    4.10837D-02
         5    9.94506D-03  0.00D+00  9.95D-03  5.19D+00    5.47783D-02
         6    1.02749D-02  0.00D+00  1.03D-02  5.32D+00    6.84728D-02
         7    1.07087D-02  0.00D+00  1.07D-02  5.49D+00    8.21674D-02
         8    1.12702D-02  0.00D+00  1.13D-02  5.70D+00    9.58619D-02
         9    1.19940D-02  0.00D+00  1.20D-02  5.96D+00    1.09557D-01

 ** RSPCTL MICROITERATION NUMBER    5

       No.  Residual tot.,    conf., and orb.    Bnorm      Frequency 
      ----------------------------------------------------------------
         1    1.36964D-03  0.00D+00  1.37D-03  4.97D+00    0.00000D+00
         2    1.37706D-03  0.00D+00  1.38D-03  4.99D+00    1.36946D-02
         3    1.39971D-03  0.00D+00  1.40D-03  5.03D+00    2.73891D-02
         4    1.43875D-03  0.00D+00  1.44D-03  5.09D+00    4.10837D-02
         5    1.49628D-03  0.00D+00  1.50D-03  5.19D+00    5.47783D-02
         6    1.57556D-03  0.00D+00  1.58D-03  5.32D+00    6.84728D-02
         7    1.68141D-03  0.00D+00  1.68D-03  5.49D+00    8.21674D-02
         8    1.82084D-03  0.00D+00  1.82D-03  5.70D+00    9.58619D-02
         9    2.00416D-03  0.00D+00  2.00D-03  5.96D+00    1.09557D-01

 *** THE REQUESTED    9 SOLUTION VECTORS CONVERGED

 Convergence of RSP solution vectors, threshold = 1.00D-03
 ---------------------------------------------------------------
 (dimension of paired reduced space:   90)
 RSP solution vector no.    1; norm of residual   2.75D-04
 RSP solution vector no.    2; norm of residual   2.76D-04
 RSP solution vector no.    3; norm of residual   2.79D-04
 RSP solution vector no.    4; norm of residual   2.82D-04
 RSP solution vector no.    5; norm of residual   2.88D-04
 RSP solution vector no.    6; norm of residual   2.96D-04
 RSP solution vector no.    7; norm of residual   3.06D-04
 RSP solution vector no.    8; norm of residual   3.20D-04
 RSP solution vector no.    9; norm of residual   3.36D-04

 *** RSPCTL MICROITERATIONS CONVERGED


           Final output of second order properties from linear response
           ------------------------------------------------------------


@ Spin symmetry of operators: singlet

 Note that minus the linear response function: - << A; B >>(omega) is printed.
 The results are of quadratic accuracy using Sellers formula.

@ FREQUENCY INDEPENDENT SECOND ORDER PROPERTIES

@ -<< ZDIPLEN  ; ZDIPLEN  >> =  2.452993034630E+01

@ FREQUENCY DEPENDENT SECOND ORDER PROPERTIES WITH FREQUENCY :

@    a.u.:  1.3694563D-02
@    cm-1:  3.0056090D+03
@    eV  :  3.7264800D-01
@  kJ/mol:  3.5955068D+01
@    nm  :  3.3271127D+03

@ -<< ZDIPLEN  ; ZDIPLEN  >> =  2.455975786935E+01

@ FREQUENCY DEPENDENT SECOND ORDER PROPERTIES WITH FREQUENCY :

@    a.u.:  2.7389125D-02
@    cm-1:  6.0112181D+03
@    eV  :  7.4529600D-01
@  kJ/mol:  7.1910137D+01
@    nm  :  1.6635564D+03

@ -<< ZDIPLEN  ; ZDIPLEN  >> =  2.464990163686E+01

@ FREQUENCY DEPENDENT SECOND ORDER PROPERTIES WITH FREQUENCY :

@    a.u.:  4.1083688D-02
@    cm-1:  9.0168271D+03
@    eV  :  1.1179440D+00
@  kJ/mol:  1.0786520D+02
@    nm  :  1.1090376D+03

@ -<< ZDIPLEN  ; ZDIPLEN  >> =  2.480239082504E+01

@ FREQUENCY DEPENDENT SECOND ORDER PROPERTIES WITH FREQUENCY :

@    a.u.:  5.4778250D-02
@    cm-1:  1.2022436D+04
@    eV  :  1.4905920D+00
@  kJ/mol:  1.4382027D+02
@    nm  :  8.3177818D+02

@ -<< ZDIPLEN  ; ZDIPLEN  >> =  2.502076601644E+01

@ FREQUENCY DEPENDENT SECOND ORDER PROPERTIES WITH FREQUENCY :

@    a.u.:  6.8472813D-02
@    cm-1:  1.5028045D+04
@    eV  :  1.8632400D+00
@  kJ/mol:  1.7977534D+02
@    nm  :  6.6542254D+02

@ -<< ZDIPLEN  ; ZDIPLEN  >> =  2.531034227094E+01

@ FREQUENCY DEPENDENT SECOND ORDER PROPERTIES WITH FREQUENCY :

@    a.u.:  8.2167375D-02
@    cm-1:  1.8033654D+04
@    eV  :  2.2358880D+00
@  kJ/mol:  2.1573041D+02
@    nm  :  5.5451878D+02

@ -<< ZDIPLEN  ; ZDIPLEN  >> =  2.567863468226E+01

@ FREQUENCY DEPENDENT SECOND ORDER PROPERTIES WITH FREQUENCY :

@    a.u.:  9.5861937D-02
@    cm-1:  2.1039263D+04
@    eV  :  2.6085360D+00
@  kJ/mol:  2.5168548D+02
@    nm  :  4.7530182D+02

@ -<< ZDIPLEN  ; ZDIPLEN  >> =  2.613602306997E+01

@ FREQUENCY DEPENDENT SECOND ORDER PROPERTIES WITH FREQUENCY :

@    a.u.:  1.0955650D-01
@    cm-1:  2.4044872D+04
@    eV  :  2.9811840D+00
@  kJ/mol:  2.8764055D+02
@    nm  :  4.1588909D+02

@ -<< ZDIPLEN  ; ZDIPLEN  >> =  2.669679211198E+01


 Time used in linear response calculation is     14.21 CPU seconds for symmetry 1
 ----------------------------------------------------------------
 ----- Linear response calculation
 ----- Symmetry of excitation/property operator(s)    2  ( B1 )
 ----------------------------------------------------------------

 Number of excitations of this symmetry            0
 Number of response properties of this symmetry    1
 Number of C6/C8 properties of this symmetry       0


 Perturbation symmetry.     KSYMOP:           2
 Perturbation spin symmetry.TRPLET:           F
 Orbital variables.         KZWOPT:         578
 Configuration variables.   KZCONF:           0
 Total number of variables. KZVAR :         578


 RSPLR -- linear response calculation for symmetry 2  ( B1 )
 RSPLR -- operator label : XDIPLEN 
 RSPLR -- operator spin  :   0
 RSPLR -- frequencies    :     0.000000  0.013695  0.027389  0.041084  0.054778
                               0.068473  0.082167  0.095862  0.109557



 ---  SOLVING SETS OF LINEAR EQUATIONS FOR LINEAR RESPONSE PROPERTIES ---

 Operator symmetry = 2  ( B1 ); triplet =   F


 ** RSPCTL MICROITERATION NUMBER    1

       No.  Residual tot.,    conf., and orb.    Bnorm      Frequency 
      ----------------------------------------------------------------
         1    1.67913D+00  0.00D+00  1.68D+00  4.81D+00    0.00000D+00
         2    1.68015D+00  0.00D+00  1.68D+00  4.82D+00    1.36946D-02
         3    1.68322D+00  0.00D+00  1.68D+00  4.86D+00    2.73891D-02
         4    1.68841D+00  0.00D+00  1.69D+00  4.93D+00    4.10837D-02
         5    1.69585D+00  0.00D+00  1.70D+00  5.03D+00    5.47783D-02
         6    1.70571D+00  0.00D+00  1.71D+00  5.16D+00    6.84728D-02
         7    1.71829D+00  0.00D+00  1.72D+00  5.33D+00    8.21674D-02
         8    1.73398D+00  0.00D+00  1.73D+00  5.55D+00    9.58619D-02
         9    1.75337D+00  0.00D+00  1.75D+00  5.82D+00    1.09557D-01

 ** RSPCTL MICROITERATION NUMBER    2

       No.  Residual tot.,    conf., and orb.    Bnorm      Frequency 
      ----------------------------------------------------------------
         1    2.63983D-01  0.00D+00  2.64D-01  5.04D+00    0.00000D+00
         2    2.64235D-01  0.00D+00  2.64D-01  5.05D+00    1.36946D-02
         3    2.65002D-01  0.00D+00  2.65D-01  5.10D+00    2.73891D-02
         4    2.66308D-01  0.00D+00  2.66D-01  5.18D+00    4.10837D-02
         5    2.68200D-01  0.00D+00  2.68D-01  5.29D+00    5.47783D-02
         6    2.70753D-01  0.00D+00  2.71D-01  5.44D+00    6.84728D-02
         7    2.74084D-01  0.00D+00  2.74D-01  5.64D+00    8.21674D-02
         8    2.78372D-01  0.00D+00  2.78D-01  5.89D+00    9.58619D-02
         9    2.83904D-01  0.00D+00  2.84D-01  6.21D+00    1.09557D-01

 ** RSPCTL MICROITERATION NUMBER    3

       No.  Residual tot.,    conf., and orb.    Bnorm      Frequency 
      ----------------------------------------------------------------
         1    1.69967D-02  0.00D+00  1.70D-02  5.04D+00    0.00000D+00
         2    1.70705D-02  0.00D+00  1.71D-02  5.06D+00    1.36946D-02
         3    1.72957D-02  0.00D+00  1.73D-02  5.10D+00    2.73891D-02
         4    1.76842D-02  0.00D+00  1.77D-02  5.18D+00    4.10837D-02
         5    1.82572D-02  0.00D+00  1.83D-02  5.29D+00    5.47783D-02
         6    1.90484D-02  0.00D+00  1.90D-02  5.44D+00    6.84728D-02
         7    2.01086D-02  0.00D+00  2.01D-02  5.64D+00    8.21674D-02
         8    2.15141D-02  0.00D+00  2.15D-02  5.90D+00    9.58619D-02
         9    2.33814D-02  0.00D+00  2.34D-02  6.23D+00    1.09557D-01

 ** RSPCTL MICROITERATION NUMBER    4

       No.  Residual tot.,    conf., and orb.    Bnorm      Frequency 
      ----------------------------------------------------------------
         1    1.64792D-03  0.00D+00  1.65D-03  5.04D+00    0.00000D+00
         2    1.65636D-03  0.00D+00  1.66D-03  5.06D+00    1.36946D-02
         3    1.68307D-03  0.00D+00  1.68D-03  5.10D+00    2.73891D-02
         4    1.73231D-03  0.00D+00  1.73D-03  5.18D+00    4.10837D-02
         5    1.81184D-03  0.00D+00  1.81D-03  5.29D+00    5.47783D-02
         6    1.93377D-03  0.00D+00  1.93D-03  5.44D+00    6.84728D-02
         7    2.11588D-03  0.00D+00  2.12D-03  5.64D+00    8.21674D-02
         8    2.38353D-03  0.00D+00  2.38D-03  5.90D+00    9.58619D-02
         9    2.77279D-03  0.00D+00  2.77D-03  6.23D+00    1.09557D-01

 *** THE REQUESTED    9 SOLUTION VECTORS CONVERGED

 Convergence of RSP solution vectors, threshold = 1.00D-03
 ---------------------------------------------------------------
 (dimension of paired reduced space:   72)
 RSP solution vector no.    1; norm of residual   3.27D-04
 RSP solution vector no.    2; norm of residual   3.27D-04
 RSP solution vector no.    3; norm of residual   3.30D-04
 RSP solution vector no.    4; norm of residual   3.34D-04
 RSP solution vector no.    5; norm of residual   3.42D-04
 RSP solution vector no.    6; norm of residual   3.55D-04
 RSP solution vector no.    7; norm of residual   3.75D-04
 RSP solution vector no.    8; norm of residual   4.04D-04
 RSP solution vector no.    9; norm of residual   4.45D-04

 *** RSPCTL MICROITERATIONS CONVERGED


           Final output of second order properties from linear response
           ------------------------------------------------------------


@ Spin symmetry of operators: singlet

 Note that minus the linear response function: - << A; B >>(omega) is printed.
 The results are of quadratic accuracy using Sellers formula.

@ FREQUENCY INDEPENDENT SECOND ORDER PROPERTIES

@ -<< XDIPLEN  ; XDIPLEN  >> =  2.373539825784E+01

@ FREQUENCY DEPENDENT SECOND ORDER PROPERTIES WITH FREQUENCY :

@    a.u.:  1.3694563D-02
@    cm-1:  3.0056090D+03
@    eV  :  3.7264800D-01
@  kJ/mol:  3.5955068D+01
@    nm  :  3.3271127D+03

@ -<< XDIPLEN  ; XDIPLEN  >> =  2.376677863331E+01

@ FREQUENCY DEPENDENT SECOND ORDER PROPERTIES WITH FREQUENCY :

@    a.u.:  2.7389125D-02
@    cm-1:  6.0112181D+03
@    eV  :  7.4529600D-01
@  kJ/mol:  7.1910137D+01
@    nm  :  1.6635564D+03

@ -<< XDIPLEN  ; XDIPLEN  >> =  2.386175341418E+01

@ FREQUENCY DEPENDENT SECOND ORDER PROPERTIES WITH FREQUENCY :

@    a.u.:  4.1083688D-02
@    cm-1:  9.0168271D+03
@    eV  :  1.1179440D+00
@  kJ/mol:  1.0786520D+02
@    nm  :  1.1090376D+03

@ -<< XDIPLEN  ; XDIPLEN  >> =  2.402289807629E+01

@ FREQUENCY DEPENDENT SECOND ORDER PROPERTIES WITH FREQUENCY :

@    a.u.:  5.4778250D-02
@    cm-1:  1.2022436D+04
@    eV  :  1.4905920D+00
@  kJ/mol:  1.4382027D+02
@    nm  :  8.3177818D+02

@ -<< XDIPLEN  ; XDIPLEN  >> =  2.425476824699E+01

@ FREQUENCY DEPENDENT SECOND ORDER PROPERTIES WITH FREQUENCY :

@    a.u.:  6.8472813D-02
@    cm-1:  1.5028045D+04
@    eV  :  1.8632400D+00
@  kJ/mol:  1.7977534D+02
@    nm  :  6.6542254D+02

@ -<< XDIPLEN  ; XDIPLEN  >> =  2.456435152168E+01

@ FREQUENCY DEPENDENT SECOND ORDER PROPERTIES WITH FREQUENCY :

@    a.u.:  8.2167375D-02
@    cm-1:  1.8033654D+04
@    eV  :  2.2358880D+00
@  kJ/mol:  2.1573041D+02
@    nm  :  5.5451878D+02

@ -<< XDIPLEN  ; XDIPLEN  >> =  2.496183621468E+01

@ FREQUENCY DEPENDENT SECOND ORDER PROPERTIES WITH FREQUENCY :

@    a.u.:  9.5861937D-02
@    cm-1:  2.1039263D+04
@    eV  :  2.6085360D+00
@  kJ/mol:  2.5168548D+02
@    nm  :  4.7530182D+02

@ -<< XDIPLEN  ; XDIPLEN  >> =  2.546189848867E+01

@ FREQUENCY DEPENDENT SECOND ORDER PROPERTIES WITH FREQUENCY :

@    a.u.:  1.0955650D-01
@    cm-1:  2.4044872D+04
@    eV  :  2.9811840D+00
@  kJ/mol:  2.8764055D+02
@    nm  :  4.1588909D+02

@ -<< XDIPLEN  ; XDIPLEN  >> =  2.608590821403E+01


 Time used in linear response calculation is     11.50 CPU seconds for symmetry 2
 ----------------------------------------------------------------
 ----- Linear response calculation
 ----- Symmetry of excitation/property operator(s)    3  ( B2 )
 ----------------------------------------------------------------

 Number of excitations of this symmetry            0
 Number of response properties of this symmetry    1
 Number of C6/C8 properties of this symmetry       0


 Perturbation symmetry.     KSYMOP:           3
 Perturbation spin symmetry.TRPLET:           F
 Orbital variables.         KZWOPT:         578
 Configuration variables.   KZCONF:           0
 Total number of variables. KZVAR :         578


 RSPLR -- linear response calculation for symmetry 3  ( B2 )
 RSPLR -- operator label : YDIPLEN 
 RSPLR -- operator spin  :   0
 RSPLR -- frequencies    :     0.000000  0.013695  0.027389  0.041084  0.054778
                               0.068473  0.082167  0.095862  0.109557



 ---  SOLVING SETS OF LINEAR EQUATIONS FOR LINEAR RESPONSE PROPERTIES ---

 Operator symmetry = 3  ( B2 ); triplet =   F


 ** RSPCTL MICROITERATION NUMBER    1

       No.  Residual tot.,    conf., and orb.    Bnorm      Frequency 
      ----------------------------------------------------------------
         1    1.65245D+00  0.00D+00  1.65D+00  4.80D+00    0.00000D+00
         2    1.65346D+00  0.00D+00  1.65D+00  4.82D+00    1.36946D-02
         3    1.65653D+00  0.00D+00  1.66D+00  4.86D+00    2.73891D-02
         4    1.66171D+00  0.00D+00  1.66D+00  4.93D+00    4.10837D-02
         5    1.66914D+00  0.00D+00  1.67D+00  5.02D+00    5.47783D-02
         6    1.67900D+00  0.00D+00  1.68D+00  5.16D+00    6.84728D-02
         7    1.69156D+00  0.00D+00  1.69D+00  5.33D+00    8.21674D-02
         8    1.70723D+00  0.00D+00  1.71D+00  5.54D+00    9.58619D-02
         9    1.72660D+00  0.00D+00  1.73D+00  5.82D+00    1.09557D-01

 ** RSPCTL MICROITERATION NUMBER    2

       No.  Residual tot.,    conf., and orb.    Bnorm      Frequency 
      ----------------------------------------------------------------
         1    2.78239D-01  0.00D+00  2.78D-01  5.04D+00    0.00000D+00
         2    2.78521D-01  0.00D+00  2.79D-01  5.05D+00    1.36946D-02
         3    2.79373D-01  0.00D+00  2.79D-01  5.10D+00    2.73891D-02
         4    2.80826D-01  0.00D+00  2.81D-01  5.18D+00    4.10837D-02
         5    2.82931D-01  0.00D+00  2.83D-01  5.29D+00    5.47783D-02
         6    2.85773D-01  0.00D+00  2.86D-01  5.44D+00    6.84728D-02
         7    2.89479D-01  0.00D+00  2.89D-01  5.64D+00    8.21674D-02
         8    2.94249D-01  0.00D+00  2.94D-01  5.89D+00    9.58619D-02
         9    3.00397D-01  0.00D+00  3.00D-01  6.21D+00    1.09557D-01

 ** RSPCTL MICROITERATION NUMBER    3

       No.  Residual tot.,    conf., and orb.    Bnorm      Frequency 
      ----------------------------------------------------------------
         1    2.06726D-02  0.00D+00  2.07D-02  5.04D+00    0.00000D+00
         2    2.07773D-02  0.00D+00  2.08D-02  5.06D+00    1.36946D-02
         3    2.10958D-02  0.00D+00  2.11D-02  5.10D+00    2.73891D-02
         4    2.16406D-02  0.00D+00  2.16D-02  5.18D+00    4.10837D-02
         5    2.24349D-02  0.00D+00  2.24D-02  5.29D+00    5.47783D-02
         6    2.35144D-02  0.00D+00  2.35D-02  5.44D+00    6.84728D-02
         7    2.49331D-02  0.00D+00  2.49D-02  5.64D+00    8.21674D-02
         8    2.67706D-02  0.00D+00  2.68D-02  5.90D+00    9.58619D-02
         9    2.91474D-02  0.00D+00  2.91D-02  6.23D+00    1.09557D-01

 ** RSPCTL MICROITERATION NUMBER    4

       No.  Residual tot.,    conf., and orb.    Bnorm      Frequency 
      ----------------------------------------------------------------
         1    3.31927D-03  0.00D+00  3.32D-03  5.04D+00    0.00000D+00
         2    3.33505D-03  0.00D+00  3.34D-03  5.06D+00    1.36946D-02
         3    3.38330D-03  0.00D+00  3.38D-03  5.10D+00    2.73891D-02
         4    3.46694D-03  0.00D+00  3.47D-03  5.18D+00    4.10837D-02
         5    3.59132D-03  0.00D+00  3.59D-03  5.29D+00    5.47783D-02
         6    3.76513D-03  0.00D+00  3.77D-03  5.44D+00    6.84728D-02
         7    4.00194D-03  0.00D+00  4.00D-03  5.64D+00    8.21674D-02
         8    4.32288D-03  0.00D+00  4.32D-03  5.90D+00    9.58619D-02
         9    4.76136D-03  0.00D+00  4.76D-03  6.23D+00    1.09557D-01

 *** THE REQUESTED    9 SOLUTION VECTORS CONVERGED

 Convergence of RSP solution vectors, threshold = 1.00D-03
 ---------------------------------------------------------------
 (dimension of paired reduced space:   72)
 RSP solution vector no.    1; norm of residual   6.58D-04
 RSP solution vector no.    2; norm of residual   6.59D-04
 RSP solution vector no.    3; norm of residual   6.63D-04
 RSP solution vector no.    4; norm of residual   6.69D-04
 RSP solution vector no.    5; norm of residual   6.78D-04
 RSP solution vector no.    6; norm of residual   6.92D-04
 RSP solution vector no.    7; norm of residual   7.09D-04
 RSP solution vector no.    8; norm of residual   7.33D-04
 RSP solution vector no.    9; norm of residual   7.65D-04

 *** RSPCTL MICROITERATIONS CONVERGED


           Final output of second order properties from linear response
           ------------------------------------------------------------


@ Spin symmetry of operators: singlet

 Note that minus the linear response function: - << A; B >>(omega) is printed.
 The results are of quadratic accuracy using Sellers formula.

@ FREQUENCY INDEPENDENT SECOND ORDER PROPERTIES

@ -<< YDIPLEN  ; YDIPLEN  >> =  2.373539811940E+01

@ FREQUENCY DEPENDENT SECOND ORDER PROPERTIES WITH FREQUENCY :

@    a.u.:  1.3694563D-02
@    cm-1:  3.0056090D+03
@    eV  :  3.7264800D-01
@  kJ/mol:  3.5955068D+01
@    nm  :  3.3271127D+03

@ -<< YDIPLEN  ; YDIPLEN  >> =  2.376677849221E+01

@ FREQUENCY DEPENDENT SECOND ORDER PROPERTIES WITH FREQUENCY :

@    a.u.:  2.7389125D-02
@    cm-1:  6.0112181D+03
@    eV  :  7.4529600D-01
@  kJ/mol:  7.1910137D+01
@    nm  :  1.6635564D+03

@ -<< YDIPLEN  ; YDIPLEN  >> =  2.386175326483E+01

@ FREQUENCY DEPENDENT SECOND ORDER PROPERTIES WITH FREQUENCY :

@    a.u.:  4.1083688D-02
@    cm-1:  9.0168271D+03
@    eV  :  1.1179440D+00
@  kJ/mol:  1.0786520D+02
@    nm  :  1.1090376D+03

@ -<< YDIPLEN  ; YDIPLEN  >> =  2.402289791216E+01

@ FREQUENCY DEPENDENT SECOND ORDER PROPERTIES WITH FREQUENCY :

@    a.u.:  5.4778250D-02
@    cm-1:  1.2022436D+04
@    eV  :  1.4905920D+00
@  kJ/mol:  1.4382027D+02
@    nm  :  8.3177818D+02

@ -<< YDIPLEN  ; YDIPLEN  >> =  2.425476805982E+01

@ FREQUENCY DEPENDENT SECOND ORDER PROPERTIES WITH FREQUENCY :

@    a.u.:  6.8472813D-02
@    cm-1:  1.5028045D+04
@    eV  :  1.8632400D+00
@  kJ/mol:  1.7977534D+02
@    nm  :  6.6542254D+02

@ -<< YDIPLEN  ; YDIPLEN  >> =  2.456435130022E+01

@ FREQUENCY DEPENDENT SECOND ORDER PROPERTIES WITH FREQUENCY :

@    a.u.:  8.2167375D-02
@    cm-1:  1.8033654D+04
@    eV  :  2.2358880D+00
@  kJ/mol:  2.1573041D+02
@    nm  :  5.5451878D+02

@ -<< YDIPLEN  ; YDIPLEN  >> =  2.496183594270E+01

@ FREQUENCY DEPENDENT SECOND ORDER PROPERTIES WITH FREQUENCY :

@    a.u.:  9.5861937D-02
@    cm-1:  2.1039263D+04
@    eV  :  2.6085360D+00
@  kJ/mol:  2.5168548D+02
@    nm  :  4.7530182D+02

@ -<< YDIPLEN  ; YDIPLEN  >> =  2.546189814146E+01

@ FREQUENCY DEPENDENT SECOND ORDER PROPERTIES WITH FREQUENCY :

@    a.u.:  1.0955650D-01
@    cm-1:  2.4044872D+04
@    eV  :  2.9811840D+00
@  kJ/mol:  2.8764055D+02
@    nm  :  4.1588909D+02

@ -<< YDIPLEN  ; YDIPLEN  >> =  2.608590775178E+01


 Time used in linear response calculation is     11.50 CPU seconds for symmetry 3

  Total CPU  time used in RESPONSE:  37.21 seconds
  Total wall time used in RESPONSE:  37.25 seconds


                   .-------------------------------------------.
                   | End of Dynamic Property Section (RESPONS) |
                   `-------------------------------------------'

  Total CPU  time used in DALTON:  52.64 seconds
  Total wall time used in DALTON:  52.72 seconds

 
     Date and time (Linux)  : Wed Jan 11 14:17:03 2023
     Host name              : cn041                                   
