

     ************************************************************************
     *************** Dalton - An Electronic Structure Program ***************
     ************************************************************************

    This is output from DALTON release Dalton2020.0 (2020)
         ( Web site: http://daltonprogram.org )

   ----------------------------------------------------------------------------

    NOTE:
     
    Dalton is an experimental code for the evaluation of molecular
    properties using (MC)SCF, DFT, CI, and CC wave functions.
    The authors accept no responsibility for the performance of
    the code or for the correctness of the results.
     
    The code (in whole or part) is provided under a licence and
    is not to be reproduced for further distribution without
    the written permission of the authors or their representatives.
     
    See the home page "http://daltonprogram.org" for further information.
     
    If results obtained with this code are published,
    the appropriate citations would be both of:
     
       K. Aidas, C. Angeli, K. L. Bak, V. Bakken, R. Bast,
       L. Boman, O. Christiansen, R. Cimiraglia, S. Coriani,
       P. Dahle, E. K. Dalskov, U. Ekstroem,
       T. Enevoldsen, J. J. Eriksen, P. Ettenhuber, B. Fernandez,
       L. Ferrighi, H. Fliegl, L. Frediani, K. Hald, A. Halkier,
       C. Haettig, H. Heiberg, T. Helgaker, A. C. Hennum,
       H. Hettema, E. Hjertenaes, S. Hoest, I.-M. Hoeyvik,
       M. F. Iozzi, B. Jansik, H. J. Aa. Jensen, D. Jonsson,
       P. Joergensen, J. Kauczor, S. Kirpekar,
       T. Kjaergaard, W. Klopper, S. Knecht, R. Kobayashi, H. Koch,
       J. Kongsted, A. Krapp, K. Kristensen, A. Ligabue,
       O. B. Lutnaes, J. I. Melo, K. V. Mikkelsen, R. H. Myhre,
       C. Neiss, C. B. Nielsen, P. Norman, J. Olsen,
       J. M. H. Olsen, A. Osted, M. J. Packer, F. Pawlowski,
       T. B. Pedersen, P. F. Provasi, S. Reine, Z. Rinkevicius,
       T. A. Ruden, K. Ruud, V. Rybkin, P. Salek, C. C. M. Samson,
       A. Sanchez de Meras, T. Saue, S. P. A. Sauer,
       B. Schimmelpfennig, K. Sneskov, A. H. Steindal,
       K. O. Sylvester-Hvid, P. R. Taylor, A. M. Teale,
       E. I. Tellgren, D. P. Tew, A. J. Thorvaldsen, L. Thoegersen,
       O. Vahtras, M. A. Watson, D. J. D. Wilson, M. Ziolkowski
       and H. Agren,
       "The Dalton quantum chemistry program system",
       WIREs Comput. Mol. Sci. 2014, 4:269–284 (doi: 10.1002/wcms.1172)
     
    and
     
       Dalton, a molecular electronic structure program,
       Release Dalton2020.0 (2020), see http://daltonprogram.org
   ----------------------------------------------------------------------------

    Authors in alphabetical order (Major contribution(s) in parenthesis):

  Kestutis Aidas,           Vilnius University,           Lithuania   (QM/MM)
  Celestino Angeli,         University of Ferrara,        Italy       (NEVPT2)
  Keld L. Bak,              UNI-C,                        Denmark     (AOSOPPA, non-adiabatic coupling, magnetic properties)
  Vebjoern Bakken,          University of Oslo,           Norway      (DALTON; geometry optimizer, symmetry detection)
  Radovan Bast,             UiT The Arctic U. of Norway,  Norway      (DALTON installation and execution frameworks)
  Pablo Baudin,             University of Valencia,       Spain       (Cholesky excitation energies)
  Linus Boman,              NTNU,                         Norway      (Cholesky decomposition and subsystems)
  Bruno N. Cabral Tenorio,  Technical Univ. of Denmark,   Denmark     (Lanczos-based CC methods)
  Ove Christiansen,         Aarhus University,            Denmark     (CC module)
  Renzo Cimiraglia,         University of Ferrara,        Italy       (NEVPT2)
  Sonia Coriani,            Technical Univ. of Denmark,   Denmark     (CC and RESPONS modules)
  Janusz Cukras,            University of Warsaw,         Poland      (MChD in RESPONS)
  Paal Dahle,               University of Oslo,           Norway      (Parallelization)
  Erik K. Dalskov,          UNI-C,                        Denmark     (SOPPA)
  Thomas Enevoldsen,        Univ. of Southern Denmark,    Denmark     (SOPPA)
  Janus J. Eriksen,         Aarhus University,            Denmark     (Polarizable embedding, TDA)
  Rasmus Faber,             Technical Univ. of Denmark,   Denmark     (Vib.avg. NMR w. SOPPA, parallel AO-SOPPA, CVS-CC and EOMCC)
  Tobias Fahleson,          KTH Stockholm,                Sweden      (Damped cubic response)
  Berta Fernandez,          U. of Santiago de Compostela, Spain       (Doublet spin, ESR in RESPONS)
  Lara Ferrighi,            Aarhus University,            Denmark     (PCM Cubic response)
  Heike Fliegl,             University of Oslo,           Norway      (CCSD(R12))
  Luca Frediani,            UiT The Arctic U. of Norway,  Norway      (PCM)
  Emmanuel Fromager,        Univ. Strasbourg,             France      (MC-srDFT)
  Bin Gao,                  UiT The Arctic U. of Norway,  Norway      (Gen1Int library)
  Andre S. P. Gomes,        CNRS/Universite de Lille,     France      (Frozen density embedding)
  Christof Haettig,         Ruhr-University Bochum,       Germany     (CC module)
  Kasper Hald,              Aarhus University,            Denmark     (CC module)
  Asger Halkier,            Aarhus University,            Denmark     (CC module)
  Frederik Beyer Hansen,    University of Copenhagen,     Denmark     (Parallel AO-SOPPA)
  Erik D. Hedegaard,        Univ. of Southern Denmark,    Denmark     (Polarizable embedding, QM/MM, and MC-srDFT)
  Hanne Heiberg,            University of Oslo,           Norway      (Geometry analysis, selected one-electron integrals)
  Trygve Helgaker,          University of Oslo,           Norway      (DALTON; ABACUS, ERI, DFT modules, London, and much more)
  Alf Christian Hennum,     University of Oslo,           Norway      (Parity violation)
  Hinne Hettema,            University of Auckland,       New Zealand (Quadratic response in RESPONS; SIRIUS supersymmetry)
  Eirik Hjertenaes,         NTNU,                         Norway      (Cholesky decomposition)
  Pi A. B. Haase,           University of Copenhagen,     Denmark     (Triplet AO-SOPPA)
  Maria Francesca Iozzi,    University of Oslo,           Norway      (RPA)
  Christoph Jacob           TU Braunschweig               Germany     (Frozen density embedding)
  Brano Jansik              Technical Univ. of Ostrava    Czech Rep.  (DFT cubic response)
  Hans Joergen Aa. Jensen,  Univ. of Southern Denmark,    Denmark     (DALTON; SIRIUS, RESPONS, ABACUS, MC-srDFT, and much more)
  Dan Jonsson,              UiT The Arctic U. of Norway,  Norway      (Cubic response in RESPONS module)
  Poul Joergensen,          Aarhus University,            Denmark     (RESPONS, ABACUS, and CC modules)
  Maciej Kaminski,          University of Warsaw,         Poland      (CPPh in RESPONS)
  Joanna Kauczor,           Linkoeping University,        Sweden      (Complex polarization propagator (CPP) module)
  Sheela Kirpekar,          Univ. of Southern Denmark,    Denmark     (Mass-velocity & Darwin integrals)
  Erik Kjellgren,           Univ. of Southern Denmark,    Denmark     (MC-srDFT)
  Wim Klopper,              KIT Karlsruhe,                Germany     (R12 code in CC, SIRIUS, and ABACUS modules)
  Stefan Knecht,            ETH Zurich,                   Switzerland (Parallel CI and MCSCF, MC-srDFT)
  Rika Kobayashi,           Australian National Univ.,    Australia   (DIIS in CC, London in MCSCF)
  Henrik Koch,              NTNU,                         Norway      (CC module, Cholesky decomposition)
  Jacob Kongsted,           Univ. of Southern Denmark,    Denmark     (Polarizable embedding, polarizable density embedding, QM/MM)
  Andrea Ligabue,           University of Modena,         Italy       (CTOCD, AOSOPPA)
  Nanna H. List             Univ. of Southern Denmark,    Denmark     (Polarizable embedding)
  Ola B. Lutnaes,           University of Oslo,           Norway      (DFT Hessian)
  Juan I. Melo,             University of Buenos Aires,   Argentina   (LRESC, Relativistic Effects on NMR Shieldings)
  Kurt V. Mikkelsen,        University of Copenhagen,     Denmark     (MC-SCRF and QM/MM)
  Rolf H. Myhre,            NTNU,                         Norway      (Subsystems and CC3)
  Christian Neiss,          Univ. Erlangen-Nuernberg,     Germany     (CCSD(R12))
  Christian B. Nielsen,     University of Copenhagen,     Denmark     (QM/MM)
  Patrick Norman,           KTH Stockholm,                Sweden      (Cubic response and complex frequency response in RESPONS)
  Jeppe Olsen,              Aarhus University,            Denmark     (SIRIUS CI/density modules)
  Jogvan Magnus H. Olsen,   Aarhus University,            Denmark     (Polarizable embedding and polarizable density embedding)
  Anders Osted,             Copenhagen University,        Denmark     (QM/MM)
  Martin J. Packer,         University of Sheffield,      UK          (SOPPA)
  Filip Pawlowski,          Kazimierz Wielki University,  Poland      (CC3)
  Morten N. Pedersen,       Univ. of Southern Denmark,    Denmark     (Polarizable embedding)
  Thomas B. Pedersen,       University of Oslo,           Norway      (Cholesky decomposition)
  Patricio F. Provasi,      University of Northeastern,   Argentina   (Analysis of coupling constants in localized orbitals)
  Peter Reinholdt,          Univ. of Southern Denmark,    Denmark     (Polarizable embedding and polarizable density embedding)
  Zilvinas Rinkevicius,     KTH Stockholm,                Sweden      (open-shell DFT, ESR)
  Elias Rudberg,            KTH Stockholm,                Sweden      (DFT grid and basis info)
  Torgeir A. Ruden,         University of Oslo,           Norway      (Numerical derivatives in ABACUS)
  Kenneth Ruud,             UiT The Arctic U. of Norway,  Norway      (DALTON; ABACUS magnetic properties and much more)
  Pawel Salek,              KTH Stockholm,                Sweden      (DALTON; DFT code)
  Claire C. M. Samson       University of Karlsruhe       Germany     (Boys localization, r12 integrals in ERI)
  Alfredo Sanchez de Meras, University of Valencia,       Spain       (CC module, Cholesky decomposition)
  Trond Saue,               Paul Sabatier University,     France      (direct Fock matrix construction)
  Stephan P. A. Sauer,      University of Copenhagen,     Denmark     (SOPPA(CCSD), SOPPA prop., AOSOPPA, vibrational g-factors)
  Bernd Schimmelpfennig,    Forschungszentrum Karlsruhe,  Germany     (AMFI module)
  Anna K. Schnack-Petersen, University of Copenhagen,     Denmark     (RPA(D) and HRPA(D) properties in AOSOPPA)
  Kristian Sneskov,         Aarhus University,            Denmark     (Polarizable embedding, QM/MM)
  Arnfinn H. Steindal,      UiT The Arctic U. of Norway,  Norway      (parallel QM/MM, polarizable embedding)
  Casper Steinmann,         Aalborg University,           Denmark     (QFIT, polarizable embedding)
  K. O. Sylvester-Hvid,     University of Copenhagen,     Denmark     (MC-SCRF)
  Peter R. Taylor,          VLSCI/Univ. of Melbourne,     Australia   (Symmetry handling ABACUS, integral transformation)
  Andrew M. Teale,          University of Nottingham,     England     (DFT-AC, DFT-D)
  David P. Tew,             University of Bristol,        England     (CCSD(R12))
  Julien Toulouse,          Sorbonne Univ.,               France      (MC-srDFT)
  Olav Vahtras,             KTH Stockholm,                Sweden      (Triplet response, spin-orbit, ESR, TDDFT, open-shell DFT)
  Lucas Visscher,           Vrije Universiteit Amsterdam, Netherlands (Frozen density embedding)
  David J. Wilson,          La Trobe University,          Australia   (DFT Hessian and DFT magnetizabilities)
  Hans Agren,               KTH Stockholm,                Sweden      (SIRIUS module, RESPONS, MC-SCRF solvation)
 --------------------------------------------------------------------------------

     Date and time (Linux)  : Wed Jan 11 14:14:52 2023
     Host name              : cn041                                   

 * Work memory size             :    64000000 =  488.28 megabytes.

 * Directories for basis set searches:
   1) /gpfs/projects/rjh/adrian/fd_compare/dalton/hf/LiCl/dipole
   2) /gpfs/projects/rjh/adrian/dalton/build/basis


Compilation information
-----------------------

 Who compiled             | ahurtado
 Host                     | sn-mem
 System                   | Linux-3.10.0-1160.24.1.el7.x86_64
 CMake generator          | Unix Makefiles
 Processor                | x86_64
 64-bit integers          | OFF
 MPI                      | ON
 Fortran compiler         | /gpfs/software/intel/oneAPI/2021_4/mpi/2021.4.0/bi
                          | n/mpif90
 Fortran compiler version | GNU Fortran (GCC) 11.2.0
 C compiler               | /gpfs/software/intel/oneAPI/2021_4/mpi/2021.4.0/bi
                          | n/mpicc
 C compiler version       | gcc (GCC) 11.2.0
 C++ compiler             | /gpfs/software/intel/oneAPI/2021_4/mpi/2021.4.0/bi
                          | n/mpicxx
 C++ compiler version     | unknown
 BLAS                     | /gpfs/software/intel/oneAPI/2021_4/mkl/2021.4.0/li
                          | b/intel64/libmkl_gf_lp64.so;/gpfs/software/intel/o
                          | neAPI/2021_4/mkl/2021.4.0/lib/intel64/libmkl_seque
                          | ntial.so;/gpfs/software/intel/oneAPI/2021_4/mkl/20
                          | 21.4.0/lib/intel64/libmkl_core.so;/usr/lib64/libpt
                          | hread.so;/usr/lib64/libm.so
 LAPACK                   | /gpfs/software/intel/oneAPI/2021_4/mkl/2021.4.0/li
                          | b/intel64/libmkl_lapack95_lp64.a;/gpfs/software/in
                          | tel/oneAPI/2021_4/mkl/2021.4.0/lib/intel64/libmkl_
                          | gf_lp64.so
 Static linking           | OFF
 Last Git revision        | 66052b3af5ea7225e31178bf9a8b031913c72190
 Git branch               | (HEAD detached at Dalton2020.0)
 Configuration time       | 2023-01-11 13:33:37.731835

 * MPI parallel run using 20 processes.


   Content of the .dal input file
 ----------------------------------

**DALTON INPUT
.RUN RESPONSE
.DIRECT
**WAVE FUNCTIONS
.HF
**RESPONSE
*LINEAR
.DIPLEN
.FREQUENCIES
9
0.0 0.0136945625 0.027389125 0.0410836875 0.05477825 0.06847281250000001 0.082167375 0.0958619375 0.
**END OF DALTON INPUT


   Content of the .mol file
 ----------------------------

BASIS
d-aug-cc-pVTZ
blah
blah
Atomtype=2 Atomic
Charge=3 Atoms=1
Li_a 0.000000000000 0.000000000000 0.000000000000
Charge=17 Atoms=1
Cl_a 0.000000000000 0.000000000000 3.818500000000


       *******************************************************************
       *********** Output from DALTON general input processing ***********
       *******************************************************************

 --------------------------------------------------------------------------------
   Overall default print level:    0
   Print level for DALTON.STAT:    1

    Parallel calculation using MPI
    AO-direct calculation (in sections where implemented)
    HERMIT 1- and 2-electron integral sections will be executed
    "Old" integral transformation used (limited to max 255 basis functions)
    Wave function sections will be executed (SIRIUS module)
    Dynamic molecular response properties section will be executed (RESPONSE module)
 --------------------------------------------------------------------------------


   ****************************************************************************
   *************** Output of molecule and basis set information ***************
   ****************************************************************************


    The two title cards from your ".mol" input:
    ------------------------------------------------------------------------
 1: blah                                                                    
 2: blah                                                                    
    ------------------------------------------------------------------------

  Atomic type no.    1
  --------------------
  Nuclear charge:   3.00000
  Number of symmetry independent centers:    1
  Number of basis sets to read;    2
  Basis set file used for this atomic type with Z =   3 :
     "/gpfs/projects/rjh/adrian/dalton/build/basis/aug-cc-pVTZ"

  Atomic type no.    2
  --------------------
  Nuclear charge:  17.00000
  Number of symmetry independent centers:    1
  Number of basis sets to read;    2
  Basis set file used for this atomic type with Z =  17 :
     "/gpfs/projects/rjh/adrian/dalton/build/basis/aug-cc-pVTZ"


                      SYMADD: Requested addition of symmetry
                      --------------------------------------

 Symmetry test threshold:  5.00E-06

@   The molecule is centered at center of mass and rotated
@   so principal axes of inertia are along coordinate axes.

 Symmetry class found: C(oo,v)        

 Symmetry Independent Centres             
 ----------------------------
Cl_a  17 :      0.00000000     0.00000000     0.63810184  Isotope  1
Li_a   3 :      0.00000000     0.00000000    -3.18039816  Isotope  1

 The following symmetry elements were found:   X  Y     


                         SYMGRP: Point group information
                         -------------------------------

@    Full point group is: C(oo,v)        
@    Represented as:      C2v

@  * The irrep name for each symmetry:    1: A1     2: B1     3: B2     4: A2 

   * The point group was generated by:

      Reflection in the yz-plane
      Reflection in the xz-plane

   * Group multiplication table

        |  E   C2z  Oxz  Oyz
   -----+--------------------
     E  |  E   C2z  Oxz  Oyz
    C2z | C2z   E   Oyz  Oxz
    Oxz | Oxz  Oyz   E   C2z
    Oyz | Oyz  Oxz  C2z   E 

   * Character table

        |  E   C2z  Oxz  Oyz
   -----+--------------------
    A1  |   1    1    1    1
    B1  |   1   -1    1   -1
    B2  |   1   -1   -1    1
    A2  |   1    1   -1   -1

   * Direct product table

        | A1   B1   B2   A2 
   -----+--------------------
    A1  | A1   B1   B2   A2 
    B1  | B1   A1   A2   B2 
    B2  | B2   A2   A1   B1 
    A2  | A2   B2   B1   A1 


                                 Isotopic Masses
                                 ---------------

                           Li_a        7.016005
                           Cl_a       34.968853

                       Total mass:    41.984858 amu
                       Natural abundance:  70.087 %

 Center-of-mass coordinates (a.u.):    0.000000    0.000000    0.000000
 Center-of-mass coordinates (Angs):    0.000000    0.000000    0.000000


  Atoms and basis sets
  --------------------

  Number of atom types :    2
  Total number of atoms:    2

  Basis set used is "d-aug-cc-pVTZ" from the basis set library.

  label    atoms   charge   prim   cont     basis
  ----------------------------------------------------------------------
  Li          1    3.0000    75    62      [13s7p4d3f|6s5p4d3f]                               
  Cl          1   17.0000    91    66      [17s11p4d3f|7s6p4d3f]                              
  ----------------------------------------------------------------------
  total:      2   20.0000   166   128
  ----------------------------------------------------------------------
  Spherical harmonic basis used.

  Threshold for neglecting AO integrals:  1.00D-12


  Cartesian Coordinates (a.u.)
  ----------------------------

  Total number of coordinates:    6
  Li_a    :     1  x   0.0000000000    2  y   0.0000000000    3  z  -3.1803981612
  Cl_a    :     4  x   0.0000000000    5  y   0.0000000000    6  z   0.6381018388


  Symmetry Coordinates
  --------------------

  Number of coordinates in each symmetry:     2    2    2    0

  Symmetry  A1  ( 1)

    1   Li_a  z    3
    2   Cl_a  z    6

  Symmetry  B1  ( 2)

    3   Li_a  x    1
    4   Cl_a  x    4

  Symmetry  B2  ( 3)

    5   Li_a  y    2
    6   Cl_a  y    5


   Interatomic separations (in Angstrom):
   --------------------------------------

            Li_a        Cl_a  
            ------      ------
 Li_a  :    0.000000
 Cl_a  :    2.020663    0.000000


  Max    interatomic separation is    2.0207 Angstrom (    3.8185 Bohr)
  between atoms    2 and    1, "Cl_a  " and "Li_a  ".

  Min YX interatomic separation is    2.0207 Angstrom (    3.8185 Bohr)


  Bond distances (Angstrom):
  --------------------------

                  atom 1     atom 2       distance
                  ------     ------       --------
  bond distance:  Cl_a       Li_a         2.020663




 Principal moments of inertia (u*A**2) and principal axes
 --------------------------------------------------------

   IA       0.000000          0.000000    0.000000    1.000000
   IB      23.859781          0.000000    1.000000    0.000000
   IC      23.859781          1.000000    0.000000    0.000000


 Rotational constants
 --------------------

@    The molecule is linear.

               B =        21181.21 MHz     (    0.706529 cm-1)


@  Nuclear repulsion energy :   13.356029854655 Hartree


  Symmetry Orbitals
  -----------------

  Number of orbitals in each symmetry:          52   31   31   14


  Symmetry  A1 ( 1)

    1     Li_a     1s         1
    2     Li_a     1s         2
    3     Li_a     1s         3
    4     Li_a     1s         4
    5     Li_a     1s         5
    6     Li_a     1s         6
    7     Li_a     2pz        9
    8     Li_a     2pz       12
    9     Li_a     2pz       15
   10     Li_a     2pz       18
   11     Li_a     2pz       21
   12     Li_a     3d0       24
   13     Li_a     3d2+      26
   14     Li_a     3d0       29
   15     Li_a     3d2+      31
   16     Li_a     3d0       34
   17     Li_a     3d2+      36
   18     Li_a     3d0       39
   19     Li_a     3d2+      41
   20     Li_a     4f0       45
   21     Li_a     4f2+      47
   22     Li_a     4f0       52
   23     Li_a     4f2+      54
   24     Li_a     4f0       59
   25     Li_a     4f2+      61
   26     Cl_a     1s        63
   27     Cl_a     1s        64
   28     Cl_a     1s        65
   29     Cl_a     1s        66
   30     Cl_a     1s        67
   31     Cl_a     1s        68
   32     Cl_a     1s        69
   33     Cl_a     2pz       72
   34     Cl_a     2pz       75
   35     Cl_a     2pz       78
   36     Cl_a     2pz       81
   37     Cl_a     2pz       84
   38     Cl_a     2pz       87
   39     Cl_a     3d0       90
   40     Cl_a     3d2+      92
   41     Cl_a     3d0       95
   42     Cl_a     3d2+      97
   43     Cl_a     3d0      100
   44     Cl_a     3d2+     102
   45     Cl_a     3d0      105
   46     Cl_a     3d2+     107
   47     Cl_a     4f0      111
   48     Cl_a     4f2+     113
   49     Cl_a     4f0      118
   50     Cl_a     4f2+     120
   51     Cl_a     4f0      125
   52     Cl_a     4f2+     127


  Symmetry  B1 ( 2)

   53     Li_a     2px        7
   54     Li_a     2px       10
   55     Li_a     2px       13
   56     Li_a     2px       16
   57     Li_a     2px       19
   58     Li_a     3d1+      25
   59     Li_a     3d1+      30
   60     Li_a     3d1+      35
   61     Li_a     3d1+      40
   62     Li_a     4f1+      46
   63     Li_a     4f3+      48
   64     Li_a     4f1+      53
   65     Li_a     4f3+      55
   66     Li_a     4f1+      60
   67     Li_a     4f3+      62
   68     Cl_a     2px       70
   69     Cl_a     2px       73
   70     Cl_a     2px       76
   71     Cl_a     2px       79
   72     Cl_a     2px       82
   73     Cl_a     2px       85
   74     Cl_a     3d1+      91
   75     Cl_a     3d1+      96
   76     Cl_a     3d1+     101
   77     Cl_a     3d1+     106
   78     Cl_a     4f1+     112
   79     Cl_a     4f3+     114
   80     Cl_a     4f1+     119
   81     Cl_a     4f3+     121
   82     Cl_a     4f1+     126
   83     Cl_a     4f3+     128


  Symmetry  B2 ( 3)

   84     Li_a     2py        8
   85     Li_a     2py       11
   86     Li_a     2py       14
   87     Li_a     2py       17
   88     Li_a     2py       20
   89     Li_a     3d1-      23
   90     Li_a     3d1-      28
   91     Li_a     3d1-      33
   92     Li_a     3d1-      38
   93     Li_a     4f3-      42
   94     Li_a     4f1-      44
   95     Li_a     4f3-      49
   96     Li_a     4f1-      51
   97     Li_a     4f3-      56
   98     Li_a     4f1-      58
   99     Cl_a     2py       71
  100     Cl_a     2py       74
  101     Cl_a     2py       77
  102     Cl_a     2py       80
  103     Cl_a     2py       83
  104     Cl_a     2py       86
  105     Cl_a     3d1-      89
  106     Cl_a     3d1-      94
  107     Cl_a     3d1-      99
  108     Cl_a     3d1-     104
  109     Cl_a     4f3-     108
  110     Cl_a     4f1-     110
  111     Cl_a     4f3-     115
  112     Cl_a     4f1-     117
  113     Cl_a     4f3-     122
  114     Cl_a     4f1-     124


  Symmetry  A2 ( 4)

  115     Li_a     3d2-      22
  116     Li_a     3d2-      27
  117     Li_a     3d2-      32
  118     Li_a     3d2-      37
  119     Li_a     4f2-      43
  120     Li_a     4f2-      50
  121     Li_a     4f2-      57
  122     Cl_a     3d2-      88
  123     Cl_a     3d2-      93
  124     Cl_a     3d2-      98
  125     Cl_a     3d2-     103
  126     Cl_a     4f2-     109
  127     Cl_a     4f2-     116
  128     Cl_a     4f2-     123

  Symmetries of electric field:  B1 (2)  B2 (3)  A1 (1)

  Symmetries of magnetic field:  B2 (3)  B1 (2)  A2 (4)


                     .---------------------------------------.
                     | Starting in Integral Section (HERMIT) |
                     `---------------------------------------'



 ***************************************************************************************
 ****************** Output from **INTEGRALS input processing (HERMIT) ******************
 ***************************************************************************************


 - Using defaults, no **INTEGRALS input found

 Default print level:        1

 Calculation of one-electron Hamiltonian integrals.

 Center of mass  (bohr):      0.000000000000      0.000000000000      0.000000000000
 Operator center (bohr):      0.000000000000      0.000000000000      0.000000000000
 Gauge origin    (bohr):      0.000000000000      0.000000000000      0.000000000000
 Dipole origin   (bohr):      0.000000000000      0.000000000000      0.000000000000


     ************************************************************************
     ************************** Output from HERINT **************************
     ************************************************************************



                      Nuclear contribution to dipole moments
                      --------------------------------------

                 au               Debye          C m (/(10**-30)

      z      1.30653678         3.32088503        11.07728009


  Time used in GABGEN     is       0.11 seconds
  Total CPU  time used in HERMIT:   0.25 seconds
  Total wall time used in HERMIT:   0.26 seconds


                        .----------------------------------.
                        | End of Integral Section (HERMIT) |
                        `----------------------------------'



                   .--------------------------------------------.
                   | Starting in Wave Function Section (SIRIUS) |
                   `--------------------------------------------'


 *** Output from Huckel module :

     Using EWMO model:          T
     Using EHT  model:          F
     Number of Huckel orbitals each symmetry:   10    4    4    1

 EWMO - Energy Weighted Maximum Overlap - is a Huckel type method,
        which normally is better than Extended Huckel Theory.
 Reference: Linderberg and Ohrn, Propagators in Quantum Chemistry (Wiley, 1973)

 Huckel EWMO eigenvalues for symmetry :  1
         -104.883964     -10.609452      -8.072241      -2.486708      -1.123908
           -0.513960      -0.171611      -0.085660      -0.055556      -0.054851

 Huckel EWMO eigenvalues for symmetry :  2
           -8.072216      -0.518935      -0.119286      -0.053719

 Huckel EWMO eigenvalues for symmetry :  3
           -8.072216      -0.518935      -0.119286      -0.053719

 Huckel EWMO eigenvalues for symmetry :  4
           -0.055556

 **********************************************************************
 *SIRIUS* a direct, restricted step, second order MCSCF program       *
 **********************************************************************

 
     Date and time (Linux)  : Wed Jan 11 14:14:52 2023
     Host name              : cn041                                   

 Title lines from ".mol" input file:
     blah                                                                    
     blah                                                                    

 Print level on unit LUPRI =   2 is   0
 Print level on unit LUW4  =   2 is   5

@    Restricted, closed shell Hartree-Fock calculation.

@    Time-dependent Hartree-Fock calculation (random phase approximation).
 Fock matrices are calculated directly and in parallel without use of integrals on disk.

 Initial molecular orbitals are obtained according to
 ".MOSTART EWMO  " input option

     Wave function specification
     ============================
@    Wave function type        --- HF ---
@    Number of closed shell electrons          20
@    Number of electrons in active shells       0
@    Total charge of the molecule               0

@    Spin multiplicity and 2 M_S                1         0
@    Total number of symmetries                 4 (point group: C2v)
@    Reference state symmetry                   1 (irrep name : A1 )

     Orbital specifications
     ======================
@    Abelian symmetry species          All |    1    2    3    4
@                                          |  A1   B1   B2   A2 
                                       --- |  ---  ---  ---  ---
@    Total number of orbitals          128 |   52   31   31   14
@    Number of basis functions         128 |   52   31   31   14

      ** Automatic occupation of RHF orbitals **

      -- Initial occupation of symmetries is determined from extended Huckel guess.           
      -- Initial occupation of symmetries is :
@    Occupied SCF orbitals              10 |    6    2    2    0

     Maximum number of Fock   iterations      0
     Maximum number of DIIS   iterations     60
     Maximum number of QC-SCF iterations     60
     Threshold for SCF convergence     1.00D-05


 ***********************************************
 ***** DIIS acceleration of SCF iterations *****
 ***********************************************

 C1-DIIS algorithm; max error vectors =    8

 Automatic occupation of symmetries with  20 electrons.

 Iter     Total energy    Error norm  Delta(E)    SCF occupation
 -----------------------------------------------------------------------------
   1  Screening settings (-IFTHRS, JTDIIS, DIFDEN, times)   -7    1    T  2.26D-01  2.26D-01
@  1  -467.006194899       7.20D-01  -4.67D+02     6   2   2   0
      Virial theorem: -V/T =      1.997182
@    MULPOP   Li_a    0.81; Cl_a   -0.81; 
   1  Level shift: doubly occupied orbital energies shifted by -2.00D-01
 -----------------------------------------------------------------------------
   2  Screening settings (-IFTHRS, JTDIIS, DIFDEN, times)   -7    2    T  2.06D-01  2.06D-01
@  2  -467.047760493       2.00D-01  -4.16D-02     6   2   2   0
      Virial theorem: -V/T =      2.000765
@    MULPOP   Li_a    0.44; Cl_a   -0.44; 
   2  Level shift: doubly occupied orbital energies shifted by -1.00D-01
 -----------------------------------------------------------------------------
   3  Screening settings (-IFTHRS, JTDIIS, DIFDEN, times)  -11    3    F  1.87D-01  1.88D-01
@  3  -467.051357814       5.50D-02  -3.60D-03     6   2   2   0
      Virial theorem: -V/T =      1.999933
@    MULPOP   Li_a    0.40; Cl_a   -0.40; 
   3  Level shift: doubly occupied orbital energies shifted by -5.00D-02
 -----------------------------------------------------------------------------
   4  Screening settings (-IFTHRS, JTDIIS, DIFDEN, times)  -11    4    T  1.77D-01  1.77D-01
@  4  -467.052064253       1.56D-02  -7.06D-04     6   2   2   0
      Virial theorem: -V/T =      2.000005
@    MULPOP   Li_a    0.39; Cl_a   -0.39; 
   4  Level shift: doubly occupied orbital energies shifted by -2.50D-02
 -----------------------------------------------------------------------------
   5  Screening settings (-IFTHRS, JTDIIS, DIFDEN, times)  -11    5    T  1.79D-01  1.80D-01
@  5  -467.052141977       5.03D-03  -7.77D-05     6   2   2   0
      Virial theorem: -V/T =      1.999994
@    MULPOP   Li_a    0.39; Cl_a   -0.39; 
   5  Level shift: doubly occupied orbital energies shifted by -1.25D-02
 -----------------------------------------------------------------------------
   6  Screening settings (-IFTHRS, JTDIIS, DIFDEN, times)  -11    6    T  1.76D-01  1.76D-01
@  6  -467.052150812       1.14D-03  -8.83D-06     6   2   2   0
      Virial theorem: -V/T =      2.000007
@    MULPOP   Li_a    0.39; Cl_a   -0.39; 
 -----------------------------------------------------------------------------
   7  Screening settings (-IFTHRS, JTDIIS, DIFDEN, times)  -11    7    T  1.76D-01  1.77D-01
@  7  -467.052151239       1.98D-04  -4.27D-07     6   2   2   0
      Virial theorem: -V/T =      2.000005
@    MULPOP   Li_a    0.39; Cl_a   -0.39; 
 -----------------------------------------------------------------------------
   8  Screening settings (-IFTHRS, JTDIIS, DIFDEN, times)  -11    8    T  1.75D-01  1.75D-01
@  8  -467.052151248       4.62D-05  -8.96D-09     6   2   2   0
      Virial theorem: -V/T =      2.000006
@    MULPOP   Li_a    0.39; Cl_a   -0.39; 
 -----------------------------------------------------------------------------
   9  Screening settings (-IFTHRS, JTDIIS, DIFDEN, times)  -11    9    T  1.77D-01  1.77D-01
@  9  -467.052151248       6.18D-06  -4.33D-10     6   2   2   0

@ *** DIIS converged in   9 iterations !
@     Converged SCF energy, gradient:   -467.052151248301    6.18D-06
    - total time used in SIRFCK :              0.00 seconds


 *** SCF orbital energy analysis ***

 Only the 20 lowest virtual orbital energies printed in each symmetry.

 Number of electrons :   20
 Orbital occupations :    6    2    2    0

 Sym       Hartree-Fock orbital energies

1 A1   -104.73000795   -10.45558505    -7.92175386    -2.47993515    -0.97299670
         -0.40794418    -0.01546455     0.00285684     0.01028481     0.02438118
          0.02996750     0.04733584     0.05137858     0.06081337     0.08085141
          0.09183199     0.13123265     0.13896379     0.14847085     0.15946340
          0.19508672     0.22475862     0.25179958     0.26002253     0.30217105
          0.34386761

2 B1     -7.92149204    -0.38010304     0.00689794     0.02140350     0.05105075
          0.05288558     0.07500637     0.12501465     0.14126853     0.15790020
          0.19124624     0.21693363     0.28393606     0.37366819     0.39978044
          0.46979244     0.48310855     0.61093117     0.63028349     0.78287254
          0.87124204     0.99281839

3 B2     -7.92149204    -0.38010304     0.00689794     0.02140350     0.05105075
          0.05288558     0.07500637     0.12501465     0.14126853     0.15790020
          0.19124624     0.21693363     0.28393606     0.37366819     0.39978044
          0.46979244     0.48310855     0.61093117     0.63028349     0.78287254
          0.87124204     0.99281839

4 A2      0.04733584     0.13123265     0.14847085     0.26002253     0.34386761
          0.38649029     0.58869200     0.74404844     0.84267554     1.02313784
          1.19116697     1.68090864     2.76145790     3.47453386

    E(LUMO) :    -0.01546455 au (symmetry 1)
  - E(HOMO) :    -0.38010304 au (symmetry 3)
  ------------------------------------------
    gap     :     0.36463848 au

 --- Writing SIRIFC interface file

 CPU and wall time for SCF :       1.710       1.717


                       .-----------------------------------.
                       | --- Final results from SIRIUS --- |
                       `-----------------------------------'


@    Spin multiplicity:           1
@    Spatial symmetry:            1 ( irrep  A1  in C2v )
@    Total charge of molecule:    0

@    Final HF energy:            -467.052151248301                 
@    Nuclear repulsion:            13.356029854655
@    Electronic energy:          -480.408181102956

@    Final gradient norm:           0.000006177388

 
     Date and time (Linux)  : Wed Jan 11 14:14:54 2023
     Host name              : cn041                                   

File label for MO orbitals:  11Jan23   FOCKDIIS

 (Only coefficients > 0.0100 are printed.)

 Molecular orbitals for symmetry species 1  (A1 )
 ------------------------------------------------

    Orbital         1        2        3        4        5        6        7
   1 Li_a:1s    -0.0000   0.0002  -0.0014  -0.9956  -0.0214  -0.0189   0.0027
   2 Li_a:1s    -0.0000   0.0003  -0.0020   0.0022   0.0386   0.1212  -0.1032
   3 Li_a:1s     0.0000   0.0001   0.0101   0.0610   0.0904   0.2542  -0.0657
   4 Li_a:1s     0.0001  -0.0002   0.0147   0.0580   0.0794   0.1480  -0.1776
   5 Li_a:1s    -0.0000   0.0001   0.0010   0.0041   0.0058   0.0099  -0.3955
   6 Li_a:1s     0.0000  -0.0000  -0.0001  -0.0006  -0.0009  -0.0016  -0.0727
   7 Li_a:2pz    0.0000  -0.0001   0.0001   0.0270   0.0445   0.1407   0.0732
   8 Li_a:2pz    0.0001  -0.0016   0.0068   0.0393   0.0585   0.1435   0.2042
   9 Li_a:2pz    0.0000  -0.0001   0.0031   0.0111   0.0136   0.0133   0.3070
  10 Li_a:2pz   -0.0000   0.0001  -0.0002   0.0009   0.0018   0.0074   0.1720
  11 Li_a:2pz    0.0000  -0.0000   0.0000  -0.0002  -0.0005  -0.0025   0.0675
  12 Li_a:3d0   -0.0000   0.0002  -0.0017   0.0087   0.0188   0.0430   0.0002
  14 Li_a:3d0    0.0001  -0.0010   0.0013   0.0078   0.0105   0.0290  -0.0106
  16 Li_a:3d0    0.0000  -0.0005   0.0006   0.0045   0.0078   0.0121  -0.0051
  18 Li_a:3d0   -0.0000   0.0000   0.0002   0.0007   0.0001  -0.0015  -0.0335
  20 Li_a:4f0   -0.0000   0.0003  -0.0012   0.0026   0.0075   0.0155   0.0015
  26 Cl_a:1s     1.0000  -0.0004   0.0001   0.0006  -0.0013   0.0003   0.0002
  27 Cl_a:1s     0.0001   0.9979   0.0016   0.0041  -0.0124  -0.0004   0.0020
  28 Cl_a:1s     0.0002  -0.0030  -0.0001   0.0013   0.9413  -0.0878   0.0409
  30 Cl_a:1s    -0.0002   0.0047   0.0040  -0.0236   0.0116  -0.0894   0.0041
  31 Cl_a:1s    -0.0001   0.0001  -0.0181  -0.0788  -0.0750  -0.2060  -0.0671
  32 Cl_a:1s     0.0000  -0.0008  -0.0099  -0.0379  -0.0532  -0.0961  -0.2111
  33 Cl_a:2pz   -0.0000  -0.0008   0.9980   0.0002   0.0018   0.0092   0.0002
  34 Cl_a:2pz   -0.0001   0.0008  -0.0075   0.0079  -0.0282  -0.8897  -0.0564
  36 Cl_a:2pz    0.0001  -0.0013   0.0070   0.0303   0.0185   0.0325   0.0025
  37 Cl_a:2pz   -0.0000   0.0015   0.0072   0.0276   0.0368   0.0447   0.0280
  38 Cl_a:2pz    0.0000  -0.0000   0.0006   0.0010   0.0019   0.0054  -0.0184
  41 Cl_a:3d0    0.0000  -0.0001   0.0012  -0.0046   0.0051   0.0113   0.0012

    Orbital         8        9       10       11       12       13       14
   1 Li_a:1s     0.0028   0.0005   0.0151  -0.0029   0.0000   0.0031  -0.0033
   2 Li_a:1s     0.0472   0.0212  -0.0562   0.0110   0.0000  -0.0215  -0.0348
   3 Li_a:1s     0.0258  -0.3563   0.0569   0.9351   0.0000  -0.7838   0.0402
   4 Li_a:1s     1.1834  -1.5687   5.8795   2.9270   0.0000  -3.5233  -0.1458
   5 Li_a:1s     1.0893  -1.1632   3.4521   2.2932  -0.0000  -1.4098   2.8109
   6 Li_a:1s    -1.3410   0.8738  -0.9671  -0.5606  -0.0000   0.2812  -0.1404
   7 Li_a:2pz   -0.0253  -0.0174   0.0696   0.0290   0.0000   0.0166   0.0204
   8 Li_a:2pz    0.1904  -0.2002   1.4676   0.3928   0.0000  -0.0263  -0.0822
   9 Li_a:2pz    0.6012  -0.2245   3.9018   0.4990   0.0000   0.3697   2.1223
  10 Li_a:2pz   -0.4665  -0.7838  -1.9752   2.8332  -0.0000  -1.7923   4.5712
  11 Li_a:2pz    0.7145   1.3949   0.9311  -1.2189   0.0000   0.7873  -0.5856
  12 Li_a:3d0    0.0043   0.0085   0.0061   0.0041   0.0000   0.0452  -0.0213
  13 Li_a:3d2+  -0.0000  -0.0000   0.0000  -0.0000  -0.0387   0.0000   0.0000
  14 Li_a:3d0    0.0507  -0.0166   0.2317  -0.0795  -0.0000  -0.1116   0.1052
  15 Li_a:3d2+  -0.0000  -0.0000   0.0000  -0.0000   0.2347  -0.0000   0.0000
  16 Li_a:3d0    0.1823   0.2071   0.6479  -0.1896   0.0000   1.0066  -0.5665
  17 Li_a:3d2+   0.0000   0.0000  -0.0000   0.0000  -0.6351   0.0000  -0.0000
  18 Li_a:3d0    0.0612  -0.1918   0.3546   0.0784  -0.0000  -1.1097   3.1869
  19 Li_a:3d2+  -0.0000  -0.0000   0.0000  -0.0000   1.3517  -0.0000   0.0000
  20 Li_a:4f0    0.0003   0.0042  -0.0001  -0.0000   0.0000   0.0176   0.0147
  22 Li_a:4f0    0.0141  -0.0003   0.0726  -0.0520  -0.0000  -0.0272  -0.0970
  23 Li_a:4f2+  -0.0000  -0.0000   0.0000  -0.0000   0.0531  -0.0000   0.0000
  24 Li_a:4f0    0.0430   0.0806   0.1408  -0.0390   0.0000   0.3738   0.0870
  25 Li_a:4f2+   0.0000   0.0000  -0.0000   0.0000  -0.1635   0.0000  -0.0000
  27 Cl_a:1s    -0.0003   0.0034   0.0014  -0.0123   0.0000   0.0079  -0.0027
  28 Cl_a:1s    -0.0142  -0.0092   0.0219  -0.0625  -0.0000   0.0288   0.0328
  30 Cl_a:1s    -0.0086  -0.0500  -0.0212   0.1521   0.0000  -0.0520   0.0546
  31 Cl_a:1s    -0.5776   0.0663  -2.7026  -0.4106  -0.0000  -0.7441   0.3445
  32 Cl_a:1s    -1.0352   2.3488  -6.8795  -5.0260  -0.0000   5.2245  -5.6691
  33 Cl_a:2pz   -0.0025   0.0028  -0.0118  -0.0042   0.0000   0.0057   0.0033
  34 Cl_a:2pz    0.0138   0.0175  -0.0805  -0.0014   0.0000   0.0472  -0.0005
  35 Cl_a:2pz    0.0033  -0.0039   0.0153   0.0054  -0.0000  -0.0077  -0.0042
  36 Cl_a:2pz    0.0524  -0.0041   0.2259   0.0312   0.0000   0.0577  -0.0356
  37 Cl_a:2pz    0.0762  -0.7605   0.7994   1.6124   0.0000  -1.7214   0.2917
  38 Cl_a:2pz    0.0401  -0.4117   0.9041  -0.4332   0.0000  -0.9602  -5.2052
  41 Cl_a:3d0   -0.0005  -0.0022  -0.0008   0.0073  -0.0000  -0.0043   0.0150
  43 Cl_a:3d0   -0.0090   0.0024  -0.0284  -0.0587   0.0000  -0.0380  -0.0504
  44 Cl_a:3d2+   0.0000   0.0000  -0.0000   0.0000  -0.0212   0.0000  -0.0000
  45 Cl_a:3d0    0.0396   0.1885   0.0604  -0.3219  -0.0000   0.5155   0.0883
  46 Cl_a:3d2+  -0.0000  -0.0000   0.0000  -0.0000   0.0466  -0.0000   0.0000
  49 Cl_a:4f0    0.0029   0.0054   0.0075  -0.0055   0.0000   0.0173   0.0018
  51 Cl_a:4f0   -0.0046  -0.0176  -0.0137   0.0364  -0.0000  -0.0426  -0.0064
  52 Cl_a:4f2+  -0.0000  -0.0000   0.0000   0.0000   0.0199  -0.0000  -0.0000

    Orbital        15       16
   1 Li_a:1s     0.0389  -0.0233
   2 Li_a:1s     0.1678  -0.0967
   3 Li_a:1s     0.9085   2.4526
   4 Li_a:1s    18.5010   1.2771
   5 Li_a:1s     3.8287  -0.1376
   6 Li_a:1s    -0.6518  -0.1083
   7 Li_a:2pz   -0.0335   0.0773
   8 Li_a:2pz    3.3600  -0.0167
   9 Li_a:2pz    8.4616  -4.5449
  10 Li_a:2pz   -1.2314   1.2256
  11 Li_a:2pz    0.3349  -0.6992
  12 Li_a:3d0    0.0290   0.0428
  14 Li_a:3d0    0.5904  -0.5140
  16 Li_a:3d0    1.7275  -0.6808
  18 Li_a:3d0    0.5953  -1.7769
  20 Li_a:4f0   -0.0041  -0.0117
  22 Li_a:4f0    0.1696  -0.1530
  24 Li_a:4f0    0.3301  -0.4626
  27 Cl_a:1s    -0.0052  -0.0195
  28 Cl_a:1s     0.0062   0.0769
  30 Cl_a:1s     0.0514   0.4477
  31 Cl_a:1s    -7.2695   1.8450
  32 Cl_a:1s   -17.7721  -2.3710
  33 Cl_a:2pz   -0.0327   0.0001
  34 Cl_a:2pz   -0.0453  -0.0301
  35 Cl_a:2pz    0.0434  -0.0001
  36 Cl_a:2pz    0.6041  -0.1710
  37 Cl_a:2pz    3.0323   3.7619
  38 Cl_a:2pz    1.2817   2.2605
  41 Cl_a:3d0    0.0028   0.0185
  43 Cl_a:3d0   -0.1077  -0.0745
  45 Cl_a:3d0   -0.0197  -1.1407
  49 Cl_a:4f0    0.0166  -0.0308
  51 Cl_a:4f0   -0.0097   0.1243

 Molecular orbitals for symmetry species 2  (B1 )
 ------------------------------------------------

    Orbital         1        2        3        4        5        6        7
   1 Li_a:2px    0.0004  -0.0542  -0.0087   0.0252  -0.0161   0.0490  -0.0921
   2 Li_a:2px    0.0075  -0.0136  -0.2452  -0.5300  -0.8182   0.7031  -1.3487
   3 Li_a:2px    0.0010  -0.0007  -0.6232  -0.9257  -2.5808   0.2861  -4.4509
   4 Li_a:2px   -0.0004  -0.0013   0.6070   3.0662   1.9267  -5.0298  -1.6186
   5 Li_a:2px    0.0001   0.0001  -1.3581  -1.6098  -0.8449   1.0234  -0.1416
   6 Li_a:3d1+  -0.0001  -0.0260  -0.0021  -0.0123  -0.0158   0.0201   0.0395
   7 Li_a:3d1+   0.0037   0.0098  -0.0090  -0.1343   0.0591   0.0285  -0.5235
   8 Li_a:3d1+   0.0020  -0.0093  -0.2821  -0.5966  -1.2869   0.7396  -0.2035
   9 Li_a:3d1+  -0.0002   0.0014   0.1008   0.0044   0.7637  -1.8503  -3.0218
  10 Li_a:4f1+  -0.0004  -0.0113  -0.0017  -0.0004  -0.0099  -0.0044  -0.0082
  12 Li_a:4f1+   0.0018   0.0112  -0.0007  -0.0514   0.0392   0.1029  -0.0893
  14 Li_a:4f1+   0.0001  -0.0059  -0.0907  -0.1198  -0.4447   0.0421  -0.2889
  16 Cl_a:2px   -0.9990   0.0052  -0.0007  -0.0025  -0.0014   0.0036  -0.0045
  17 Cl_a:2px    0.0048  -0.9086   0.0209  -0.0580  -0.0163  -0.0714   0.0821
  19 Cl_a:2px   -0.0060  -0.0559   0.0103   0.0449  -0.0125  -0.0922   0.1460
  20 Cl_a:2px   -0.0059  -0.0399   0.5337   1.2239   1.9443  -1.2557   2.7898
  21 Cl_a:2px    0.0002   0.0024   0.1695  -0.8907   0.6435   5.0623   5.0788
  23 Cl_a:3d1+  -0.0006   0.0117  -0.0016   0.0027  -0.0130  -0.0172   0.0215
  24 Cl_a:3d1+   0.0017   0.0090   0.0046  -0.0433   0.0600   0.0780  -0.0995
  25 Cl_a:3d1+   0.0027   0.0064  -0.1470  -0.2966  -0.5528   0.2071  -0.7379
  28 Cl_a:4f1+   0.0003  -0.0039  -0.0027  -0.0073  -0.0075   0.0026  -0.0248
  30 Cl_a:4f1+  -0.0007   0.0035   0.0119   0.0311   0.0341  -0.0273   0.0864

    Orbital         8        9       10       11       12
   1 Li_a:2px    0.1419  -0.0000  -0.0342  -0.0277   0.1899
   2 Li_a:2px   -3.3024  -0.0000   0.9985   1.5067   5.2846
   3 Li_a:2px   -6.2247  -0.0000   4.1909   1.3015   4.4171
   4 Li_a:2px    3.1003   0.0000   1.8382  -0.2721  -1.8836
   5 Li_a:2px   -0.8536  -0.0000  -0.1295   0.1018   0.3640
   6 Li_a:3d1+  -0.0734   0.0000  -0.0024  -0.0618   0.1730
   7 Li_a:3d1+  -0.4965  -0.0000   0.4291   1.3604   0.5063
   8 Li_a:3d1+  -4.7303  -0.0000   0.5372  -1.0505   5.4421
   9 Li_a:3d1+   0.5279  -0.0000   2.8212   1.0274  -0.2683
  10 Li_a:4f1+  -0.0127   0.0000   0.1192  -0.0365   0.1029
  11 Li_a:4f3+   0.0000  -0.0965  -0.0000  -0.0000   0.0000
  12 Li_a:4f1+  -0.1517  -0.0000  -0.3151   0.5771   0.1960
  13 Li_a:4f3+  -0.0000   0.3876   0.0000   0.0000  -0.0000
  14 Li_a:4f1+  -1.1509   0.0000   2.1111  -0.5030   1.9681
  15 Li_a:4f3+   0.0000  -1.2260  -0.0000  -0.0000   0.0000
  16 Cl_a:2px   -0.0103  -0.0000  -0.0046   0.0148   0.0100
  17 Cl_a:2px   -0.0788  -0.0000   0.0140   0.3087   0.0543
  18 Cl_a:2px    0.0127   0.0000   0.0074  -0.0130  -0.0102
  19 Cl_a:2px    0.1711   0.0000   0.0021  -0.3242  -0.3480
  20 Cl_a:2px    8.4729   0.0000  -3.8898  -2.5483 -10.6098
  21 Cl_a:2px   -0.2741   0.0000  -4.2353  -0.2686   0.9584
  22 Cl_a:3d1+  -0.0082  -0.0000   0.0071   0.0176  -0.0129
  23 Cl_a:3d1+  -0.0158   0.0000   0.0142  -0.0667  -0.1082
  24 Cl_a:3d1+  -0.1015  -0.0000   0.1444   0.3871   0.5517
  25 Cl_a:3d1+  -2.1071  -0.0000   0.2660   0.9409   1.1633
  26 Cl_a:4f1+   0.0101   0.0000   0.0012  -0.0113   0.0035
  28 Cl_a:4f1+  -0.0344  -0.0000  -0.0124   0.0513  -0.0078
  29 Cl_a:4f3+  -0.0000  -0.0137   0.0000   0.0000  -0.0000
  30 Cl_a:4f1+   0.1674   0.0000  -0.0570  -0.1481  -0.1835
  31 Cl_a:4f3+   0.0000   0.0239  -0.0000  -0.0000   0.0000

 Molecular orbitals for symmetry species 3  (B2 )
 ------------------------------------------------

    Orbital         1        2        3        4        5        6        7
   1 Li_a:2py    0.0004  -0.0542  -0.0087   0.0252  -0.0161   0.0490  -0.0921
   2 Li_a:2py    0.0075  -0.0136  -0.2452  -0.5300  -0.8182   0.7031  -1.3487
   3 Li_a:2py    0.0010  -0.0007  -0.6232  -0.9257  -2.5808   0.2861  -4.4509
   4 Li_a:2py   -0.0004  -0.0013   0.6070   3.0662   1.9267  -5.0298  -1.6186
   5 Li_a:2py    0.0001   0.0001  -1.3581  -1.6098  -0.8449   1.0234  -0.1416
   6 Li_a:3d1-  -0.0001  -0.0260  -0.0021  -0.0123  -0.0158   0.0201   0.0395
   7 Li_a:3d1-   0.0037   0.0098  -0.0090  -0.1343   0.0591   0.0285  -0.5235
   8 Li_a:3d1-   0.0020  -0.0093  -0.2821  -0.5966  -1.2869   0.7396  -0.2035
   9 Li_a:3d1-  -0.0002   0.0014   0.1008   0.0044   0.7637  -1.8503  -3.0218
  11 Li_a:4f1-  -0.0004  -0.0113  -0.0017  -0.0004  -0.0099  -0.0044  -0.0082
  13 Li_a:4f1-   0.0018   0.0112  -0.0007  -0.0514   0.0392   0.1029  -0.0893
  15 Li_a:4f1-   0.0001  -0.0059  -0.0907  -0.1198  -0.4447   0.0421  -0.2889
  16 Cl_a:2py   -0.9990   0.0052  -0.0007  -0.0025  -0.0014   0.0036  -0.0045
  17 Cl_a:2py    0.0048  -0.9086   0.0209  -0.0580  -0.0163  -0.0714   0.0821
  19 Cl_a:2py   -0.0060  -0.0559   0.0103   0.0449  -0.0125  -0.0922   0.1460
  20 Cl_a:2py   -0.0059  -0.0399   0.5337   1.2239   1.9443  -1.2557   2.7898
  21 Cl_a:2py    0.0002   0.0024   0.1695  -0.8907   0.6435   5.0623   5.0788
  23 Cl_a:3d1-  -0.0006   0.0117  -0.0016   0.0027  -0.0130  -0.0172   0.0215
  24 Cl_a:3d1-   0.0017   0.0090   0.0046  -0.0433   0.0600   0.0780  -0.0995
  25 Cl_a:3d1-   0.0027   0.0064  -0.1470  -0.2966  -0.5528   0.2071  -0.7379
  29 Cl_a:4f1-   0.0003  -0.0039  -0.0027  -0.0073  -0.0075   0.0026  -0.0248
  31 Cl_a:4f1-  -0.0007   0.0035   0.0119   0.0311   0.0341  -0.0273   0.0864

    Orbital         8        9       10       11       12
   1 Li_a:2py    0.1419   0.0000  -0.0342  -0.0277   0.1899
   2 Li_a:2py   -3.3024   0.0000   0.9985   1.5067   5.2846
   3 Li_a:2py   -6.2247   0.0000   4.1909   1.3015   4.4171
   4 Li_a:2py    3.1003   0.0000   1.8382  -0.2721  -1.8836
   5 Li_a:2py   -0.8536   0.0000  -0.1295   0.1018   0.3640
   6 Li_a:3d1-  -0.0734  -0.0000  -0.0024  -0.0618   0.1730
   7 Li_a:3d1-  -0.4965   0.0000   0.4291   1.3604   0.5063
   8 Li_a:3d1-  -4.7303  -0.0000   0.5372  -1.0505   5.4421
   9 Li_a:3d1-   0.5279   0.0000   2.8212   1.0274  -0.2683
  10 Li_a:4f3-  -0.0000  -0.0965   0.0000   0.0000  -0.0000
  11 Li_a:4f1-  -0.0127  -0.0000   0.1192  -0.0365   0.1029
  12 Li_a:4f3-   0.0000   0.3876  -0.0000  -0.0000   0.0000
  13 Li_a:4f1-  -0.1517   0.0000  -0.3151   0.5771   0.1960
  14 Li_a:4f3-  -0.0000  -1.2260   0.0000   0.0000  -0.0000
  15 Li_a:4f1-  -1.1509  -0.0000   2.1111  -0.5030   1.9681
  16 Cl_a:2py   -0.0103   0.0000  -0.0046   0.0148   0.0100
  17 Cl_a:2py   -0.0788   0.0000   0.0140   0.3087   0.0543
  18 Cl_a:2py    0.0127  -0.0000   0.0074  -0.0130  -0.0102
  19 Cl_a:2py    0.1711  -0.0000   0.0021  -0.3242  -0.3480
  20 Cl_a:2py    8.4729  -0.0000  -3.8898  -2.5483 -10.6098
  21 Cl_a:2py   -0.2741  -0.0000  -4.2353  -0.2686   0.9584
  22 Cl_a:3d1-  -0.0082   0.0000   0.0071   0.0176  -0.0129
  23 Cl_a:3d1-  -0.0158  -0.0000   0.0142  -0.0667  -0.1082
  24 Cl_a:3d1-  -0.1015  -0.0000   0.1444   0.3871   0.5517
  25 Cl_a:3d1-  -2.1071   0.0000   0.2660   0.9409   1.1633
  27 Cl_a:4f1-   0.0101   0.0000   0.0012  -0.0113   0.0035
  28 Cl_a:4f3-   0.0000  -0.0137  -0.0000  -0.0000  -0.0000
  29 Cl_a:4f1-  -0.0344   0.0000  -0.0124   0.0513  -0.0078
  30 Cl_a:4f3-  -0.0000   0.0239   0.0000   0.0000   0.0000
  31 Cl_a:4f1-   0.1674  -0.0000  -0.0570  -0.1481  -0.1835

 Molecular orbitals for symmetry species 4  (A2 )
 ------------------------------------------------

    Orbital         1        2        3        4        5        6        7
   1 Li_a:3d2-  -0.0387  -0.0905  -0.0934   0.0030   0.2500  -0.0001   0.0843
   2 Li_a:3d2-   0.2347   0.3809   0.4321   0.0563  -2.1569   0.7650  -0.8192
   3 Li_a:3d2-  -0.6351  -1.0354  -1.9980   1.9621   1.8794  -0.0834   1.1482
   4 Li_a:3d2-   1.3517   0.8161   0.8651  -0.1807  -0.7609   0.1084  -0.1271
   5 Li_a:4f2-  -0.0073   0.0578  -0.0495  -0.0465  -0.0387  -0.2114   0.0907
   6 Li_a:4f2-   0.0531  -0.2325   0.3101   0.2727   0.3226   1.8126  -0.9283
   7 Li_a:4f2-  -0.1635   1.1439  -1.0675   1.1658  -0.2946  -0.6197   0.8327
   8 Cl_a:3d2-   0.0010   0.0035  -0.0154  -0.0048  -0.0155   0.0380   0.1792
   9 Cl_a:3d2-   0.0066  -0.0214   0.0123  -0.1389  -0.0000   0.1023  -0.0848
  10 Cl_a:3d2-  -0.0212   0.0895  -0.1671   0.4015  -0.0787  -0.2040   1.8132
  11 Cl_a:3d2-   0.0466  -0.4618   0.6220  -2.9416   0.3280  -0.6037  -1.5514
  12 Cl_a:4f2-   0.0014  -0.0000   0.0033   0.0165  -0.0020   0.0237   0.0122
  13 Cl_a:4f2-  -0.0065   0.0029  -0.0117  -0.0698   0.0227  -0.1209  -0.0327
  14 Cl_a:4f2-   0.0199   0.0047   0.0387   0.1915  -0.0775   0.3862   0.0179

    Orbital         8        9       10
   1 Li_a:3d2-   0.4182  -1.7063  -0.4863
   2 Li_a:3d2-  -2.0957   1.5053  -0.3637
   3 Li_a:3d2-   0.4655  -1.2360   0.1751
   4 Li_a:3d2-  -0.2500   0.3771   0.0005
   5 Li_a:4f2-  -0.1276   0.3205  -1.6074
   6 Li_a:4f2-  -0.9283  -0.6095   0.6667
   7 Li_a:4f2-  -0.0421   0.0969  -0.1799
   8 Cl_a:3d2-   0.0431   0.0242  -0.0289
   9 Cl_a:3d2-  -0.0005  -0.0000  -0.3241
  10 Cl_a:3d2-   0.6254   0.2062   1.0602
  11 Cl_a:3d2-   0.9351   0.3138  -0.2619
  12 Cl_a:4f2-  -0.1178  -0.0420   0.0021
  13 Cl_a:4f2-   0.4301   0.1787   0.0619
  14 Cl_a:4f2-  -1.8680  -0.6550  -0.7899

  Total CPU  time used in SIRIUS :   1.73 seconds
  Total wall time used in SIRIUS :   1.75 seconds

 
     Date and time (Linux)  : Wed Jan 11 14:14:54 2023
     Host name              : cn041                                   


                     .---------------------------------------.
                     | End of Wave Function Section (SIRIUS) |
                     `---------------------------------------'



                 .------------------------------------------------.
                 | Starting in Dynamic Property Section (RESPONS) |
                 `------------------------------------------------'


 ----------------------------------------------------------------------------------------
  RESPONSE  -  an MCSCF, MC-srDFT, DFT, SOPPA and SOPPA-srDFT response property program
 ----------------------------------------------------------------------------------------


 -------- OUTPUT FROM RESPONSE INPUT PROCESSING --------




 Linear Response calculation
 ---------------------------

 Print level                                    : IPRLR  =   2
 Maximum number of iterations                   : MAXITL =  60
 Threshold for relative convergence             : THCLR  = 1.000D-03
 Maximum iterations in optimal orbital algorithm: MAXITO =   5

  9 B-frequencies  0.000000D+00  1.369456D-02  2.738913D-02  4.108369D-02  5.477825D-02
  6.847281D-02  8.216738D-02  9.586194D-02  1.095565D-01

    1 second order properties calculated with symmetry no.    1 and labels:

          ZDIPLEN 

    1 second order properties calculated with symmetry no.    2 and labels:

          XDIPLEN 

    1 second order properties calculated with symmetry no.    3 and labels:

          YDIPLEN 


   SCF energy         :     -467.052151248300561
 -- inactive part     :     -480.408181102955552
 -- nuclear repulsion :       13.356029854654969


                     ***************************************
                     *** RHF response calculation (TDHF) ***
                     ***************************************

 ----------------------------------------------------------------
 ----- Linear response calculation
 ----- Symmetry of excitation/property operator(s)    1  ( A1 )
 ----------------------------------------------------------------

 Number of excitations of this symmetry            0
 Number of response properties of this symmetry    1
 Number of C6/C8 properties of this symmetry       0


 Perturbation symmetry.     KSYMOP:           1
 Perturbation spin symmetry.TRPLET:           F
 Orbital variables.         KZWOPT:         392
 Configuration variables.   KZCONF:           0
 Total number of variables. KZVAR :         392


 RSPLR -- linear response calculation for symmetry 1  ( A1 )
 RSPLR -- operator label : ZDIPLEN 
 RSPLR -- operator spin  :   0
 RSPLR -- frequencies    :     0.000000  0.013695  0.027389  0.041084  0.054778
                               0.068473  0.082167  0.095862  0.109557



 ---  SOLVING SETS OF LINEAR EQUATIONS FOR LINEAR RESPONSE PROPERTIES ---

 Operator symmetry = 1  ( A1 ); triplet =   F


 ** RSPCTL MICROITERATION NUMBER    1

       No.  Residual tot.,    conf., and orb.    Bnorm      Frequency 
      ----------------------------------------------------------------
         1    1.98973D+00  0.00D+00  1.99D+00  4.65D+00    0.00000D+00
         2    1.99155D+00  0.00D+00  1.99D+00  4.66D+00    1.36946D-02
         3    1.99704D+00  0.00D+00  2.00D+00  4.70D+00    2.73891D-02
         4    2.00632D+00  0.00D+00  2.01D+00  4.76D+00    4.10837D-02
         5    2.01962D+00  0.00D+00  2.02D+00  4.84D+00    5.47783D-02
         6    2.03725D+00  0.00D+00  2.04D+00  4.96D+00    6.84728D-02
         7    2.05967D+00  0.00D+00  2.06D+00  5.10D+00    8.21674D-02
         8    2.08752D+00  0.00D+00  2.09D+00  5.28D+00    9.58619D-02
         9    2.12167D+00  0.00D+00  2.12D+00  5.50D+00    1.09557D-01

 ** RSPCTL MICROITERATION NUMBER    2

       No.  Residual tot.,    conf., and orb.    Bnorm      Frequency 
      ----------------------------------------------------------------
         1    3.15884D-01  0.00D+00  3.16D-01  4.95D+00    0.00000D+00
         2    3.16668D-01  0.00D+00  3.17D-01  4.96D+00    1.36946D-02
         3    3.19045D-01  0.00D+00  3.19D-01  5.00D+00    2.73891D-02
         4    3.23089D-01  0.00D+00  3.23D-01  5.07D+00    4.10837D-02
         5    3.28934D-01  0.00D+00  3.29D-01  5.17D+00    5.47783D-02
         6    3.36781D-01  0.00D+00  3.37D-01  5.29D+00    6.84728D-02
         7    3.46921D-01  0.00D+00  3.47D-01  5.46D+00    8.21674D-02
         8    3.59765D-01  0.00D+00  3.60D-01  5.66D+00    9.58619D-02
         9    3.75895D-01  0.00D+00  3.76D-01  5.92D+00    1.09557D-01

 ** RSPCTL MICROITERATION NUMBER    3

       No.  Residual tot.,    conf., and orb.    Bnorm      Frequency 
      ----------------------------------------------------------------
         1    4.61606D-02  0.00D+00  4.62D-02  4.96D+00    0.00000D+00
         2    4.63402D-02  0.00D+00  4.63D-02  4.98D+00    1.36946D-02
         3    4.68859D-02  0.00D+00  4.69D-02  5.02D+00    2.73891D-02
         4    4.78202D-02  0.00D+00  4.78D-02  5.09D+00    4.10837D-02
         5    4.91823D-02  0.00D+00  4.92D-02  5.18D+00    5.47783D-02
         6    5.10327D-02  0.00D+00  5.10D-02  5.31D+00    6.84728D-02
         7    5.34591D-02  0.00D+00  5.35D-02  5.48D+00    8.21674D-02
         8    5.65868D-02  0.00D+00  5.66D-02  5.69D+00    9.58619D-02
         9    6.05953D-02  0.00D+00  6.06D-02  5.95D+00    1.09557D-01

 ** RSPCTL MICROITERATION NUMBER    4

       No.  Residual tot.,    conf., and orb.    Bnorm      Frequency 
      ----------------------------------------------------------------
         1    6.07731D-03  0.00D+00  6.08D-03  4.97D+00    0.00000D+00
         2    6.10074D-03  0.00D+00  6.10D-03  4.98D+00    1.36946D-02
         3    6.17203D-03  0.00D+00  6.17D-03  5.02D+00    2.73891D-02
         4    6.29426D-03  0.00D+00  6.29D-03  5.09D+00    4.10837D-02
         5    6.47295D-03  0.00D+00  6.47D-03  5.18D+00    5.47783D-02
         6    6.71656D-03  0.00D+00  6.72D-03  5.31D+00    6.84728D-02
         7    7.03752D-03  0.00D+00  7.04D-03  5.48D+00    8.21674D-02
         8    7.45373D-03  0.00D+00  7.45D-03  5.69D+00    9.58619D-02
         9    7.99110D-03  0.00D+00  7.99D-03  5.95D+00    1.09557D-01

 ** RSPCTL MICROITERATION NUMBER    5

       No.  Residual tot.,    conf., and orb.    Bnorm      Frequency 
      ----------------------------------------------------------------
         1    8.16519D-04  0.00D+00  8.17D-04  4.97D+00    0.00000D+00
         2    8.22411D-04  0.00D+00  8.22D-04  4.98D+00    1.36946D-02
         3    8.40389D-04  0.00D+00  8.40D-04  5.02D+00    2.73891D-02
         4    8.71394D-04  0.00D+00  8.71D-04  5.09D+00    4.10837D-02
         5    9.17092D-04  0.00D+00  9.17D-04  5.18D+00    5.47783D-02
         6    9.80050D-04  0.00D+00  9.80D-04  5.31D+00    6.84728D-02
         7    1.06402D-03  0.00D+00  1.06D-03  5.48D+00    8.21674D-02
         8    1.17436D-03  0.00D+00  1.17D-03  5.69D+00    9.58619D-02
         9    1.31880D-03  0.00D+00  1.32D-03  5.95D+00    1.09557D-01

 *** THE REQUESTED    9 SOLUTION VECTORS CONVERGED

 Convergence of RSP solution vectors, threshold = 1.00D-03
 ---------------------------------------------------------------
 (dimension of paired reduced space:   90)
 RSP solution vector no.    1; norm of residual   1.64D-04
 RSP solution vector no.    2; norm of residual   1.65D-04
 RSP solution vector no.    3; norm of residual   1.67D-04
 RSP solution vector no.    4; norm of residual   1.71D-04
 RSP solution vector no.    5; norm of residual   1.77D-04
 RSP solution vector no.    6; norm of residual   1.84D-04
 RSP solution vector no.    7; norm of residual   1.94D-04
 RSP solution vector no.    8; norm of residual   2.06D-04
 RSP solution vector no.    9; norm of residual   2.22D-04

 *** RSPCTL MICROITERATIONS CONVERGED


           Final output of second order properties from linear response
           ------------------------------------------------------------


@ Spin symmetry of operators: singlet

 Note that minus the linear response function: - << A; B >>(omega) is printed.
 The results are of quadratic accuracy using Sellers formula.

@ FREQUENCY INDEPENDENT SECOND ORDER PROPERTIES

@ -<< ZDIPLEN  ; ZDIPLEN  >> =  2.444724223358E+01

@ FREQUENCY DEPENDENT SECOND ORDER PROPERTIES WITH FREQUENCY :

@    a.u.:  1.3694563D-02
@    cm-1:  3.0056090D+03
@    eV  :  3.7264800D-01
@  kJ/mol:  3.5955068D+01
@    nm  :  3.3271127D+03

@ -<< ZDIPLEN  ; ZDIPLEN  >> =  2.447691018461E+01

@ FREQUENCY DEPENDENT SECOND ORDER PROPERTIES WITH FREQUENCY :

@    a.u.:  2.7389125D-02
@    cm-1:  6.0112181D+03
@    eV  :  7.4529600D-01
@  kJ/mol:  7.1910137D+01
@    nm  :  1.6635564D+03

@ -<< ZDIPLEN  ; ZDIPLEN  >> =  2.456657400700E+01

@ FREQUENCY DEPENDENT SECOND ORDER PROPERTIES WITH FREQUENCY :

@    a.u.:  4.1083688D-02
@    cm-1:  9.0168271D+03
@    eV  :  1.1179440D+00
@  kJ/mol:  1.0786520D+02
@    nm  :  1.1090376D+03

@ -<< ZDIPLEN  ; ZDIPLEN  >> =  2.471825924258E+01

@ FREQUENCY DEPENDENT SECOND ORDER PROPERTIES WITH FREQUENCY :

@    a.u.:  5.4778250D-02
@    cm-1:  1.2022436D+04
@    eV  :  1.4905920D+00
@  kJ/mol:  1.4382027D+02
@    nm  :  8.3177818D+02

@ -<< ZDIPLEN  ; ZDIPLEN  >> =  2.493550061898E+01

@ FREQUENCY DEPENDENT SECOND ORDER PROPERTIES WITH FREQUENCY :

@    a.u.:  6.8472813D-02
@    cm-1:  1.5028045D+04
@    eV  :  1.8632400D+00
@  kJ/mol:  1.7977534D+02
@    nm  :  6.6542254D+02

@ -<< ZDIPLEN  ; ZDIPLEN  >> =  2.522360552454E+01

@ FREQUENCY DEPENDENT SECOND ORDER PROPERTIES WITH FREQUENCY :

@    a.u.:  8.2167375D-02
@    cm-1:  1.8033654D+04
@    eV  :  2.2358880D+00
@  kJ/mol:  2.1573041D+02
@    nm  :  5.5451878D+02

@ -<< ZDIPLEN  ; ZDIPLEN  >> =  2.559008037686E+01

@ FREQUENCY DEPENDENT SECOND ORDER PROPERTIES WITH FREQUENCY :

@    a.u.:  9.5861937D-02
@    cm-1:  2.1039263D+04
@    eV  :  2.6085360D+00
@  kJ/mol:  2.5168548D+02
@    nm  :  4.7530182D+02

@ -<< ZDIPLEN  ; ZDIPLEN  >> =  2.604529691539E+01

@ FREQUENCY DEPENDENT SECOND ORDER PROPERTIES WITH FREQUENCY :

@    a.u.:  1.0955650D-01
@    cm-1:  2.4044872D+04
@    eV  :  2.9811840D+00
@  kJ/mol:  2.8764055D+02
@    nm  :  4.1588909D+02

@ -<< ZDIPLEN  ; ZDIPLEN  >> =  2.660353549531E+01


 Time used in linear response calculation is      1.99 CPU seconds for symmetry 1
 ----------------------------------------------------------------
 ----- Linear response calculation
 ----- Symmetry of excitation/property operator(s)    2  ( B1 )
 ----------------------------------------------------------------

 Number of excitations of this symmetry            0
 Number of response properties of this symmetry    1
 Number of C6/C8 properties of this symmetry       0


 Perturbation symmetry.     KSYMOP:           2
 Perturbation spin symmetry.TRPLET:           F
 Orbital variables.         KZWOPT:         294
 Configuration variables.   KZCONF:           0
 Total number of variables. KZVAR :         294


 RSPLR -- linear response calculation for symmetry 2  ( B1 )
 RSPLR -- operator label : XDIPLEN 
 RSPLR -- operator spin  :   0
 RSPLR -- frequencies    :     0.000000  0.013695  0.027389  0.041084  0.054778
                               0.068473  0.082167  0.095862  0.109557



 ---  SOLVING SETS OF LINEAR EQUATIONS FOR LINEAR RESPONSE PROPERTIES ---

 Operator symmetry = 2  ( B1 ); triplet =   F


 ** RSPCTL MICROITERATION NUMBER    1

       No.  Residual tot.,    conf., and orb.    Bnorm      Frequency 
      ----------------------------------------------------------------
         1    1.48172D+00  0.00D+00  1.48D+00  4.83D+00    0.00000D+00
         2    1.48289D+00  0.00D+00  1.48D+00  4.84D+00    1.36946D-02
         3    1.48641D+00  0.00D+00  1.49D+00  4.88D+00    2.73891D-02
         4    1.49237D+00  0.00D+00  1.49D+00  4.95D+00    4.10837D-02
         5    1.50092D+00  0.00D+00  1.50D+00  5.05D+00    5.47783D-02
         6    1.51230D+00  0.00D+00  1.51D+00  5.18D+00    6.84728D-02
         7    1.52685D+00  0.00D+00  1.53D+00  5.35D+00    8.21674D-02
         8    1.54506D+00  0.00D+00  1.55D+00  5.57D+00    9.58619D-02
         9    1.56765D+00  0.00D+00  1.57D+00  5.85D+00    1.09557D-01

 ** RSPCTL MICROITERATION NUMBER    2

       No.  Residual tot.,    conf., and orb.    Bnorm      Frequency 
      ----------------------------------------------------------------
         1    1.52425D-01  0.00D+00  1.52D-01  5.05D+00    0.00000D+00
         2    1.52749D-01  0.00D+00  1.53D-01  5.06D+00    1.36946D-02
         3    1.53736D-01  0.00D+00  1.54D-01  5.11D+00    2.73891D-02
         4    1.55429D-01  0.00D+00  1.55D-01  5.19D+00    4.10837D-02
         5    1.57910D-01  0.00D+00  1.58D-01  5.30D+00    5.47783D-02
         6    1.61307D-01  0.00D+00  1.61D-01  5.45D+00    6.84728D-02
         7    1.65816D-01  0.00D+00  1.66D-01  5.65D+00    8.21674D-02
         8    1.71733D-01  0.00D+00  1.72D-01  5.90D+00    9.58619D-02
         9    1.79518D-01  0.00D+00  1.80D-01  6.23D+00    1.09557D-01

 ** RSPCTL MICROITERATION NUMBER    3

       No.  Residual tot.,    conf., and orb.    Bnorm      Frequency 
      ----------------------------------------------------------------
         1    1.01509D-02  0.00D+00  1.02D-02  5.05D+00    0.00000D+00
         2    1.02353D-02  0.00D+00  1.02D-02  5.07D+00    1.36946D-02
         3    1.04913D-02  0.00D+00  1.05D-02  5.11D+00    2.73891D-02
         4    1.09284D-02  0.00D+00  1.09D-02  5.19D+00    4.10837D-02
         5    1.15635D-02  0.00D+00  1.16D-02  5.30D+00    5.47783D-02
         6    1.24239D-02  0.00D+00  1.24D-02  5.46D+00    6.84728D-02
         7    1.35511D-02  0.00D+00  1.36D-02  5.65D+00    8.21674D-02
         8    1.50081D-02  0.00D+00  1.50D-02  5.91D+00    9.58619D-02
         9    1.68907D-02  0.00D+00  1.69D-02  6.24D+00    1.09557D-01

 ** RSPCTL MICROITERATION NUMBER    4

       No.  Residual tot.,    conf., and orb.    Bnorm      Frequency 
      ----------------------------------------------------------------
         1    1.17095D-03  0.00D+00  1.17D-03  5.05D+00    0.00000D+00
         2    1.18032D-03  0.00D+00  1.18D-03  5.07D+00    1.36946D-02
         3    1.20910D-03  0.00D+00  1.21D-03  5.11D+00    2.73891D-02
         4    1.25938D-03  0.00D+00  1.26D-03  5.19D+00    4.10837D-02
         5    1.33493D-03  0.00D+00  1.33D-03  5.30D+00    5.47783D-02
         6    1.44164D-03  0.00D+00  1.44D-03  5.46D+00    6.84728D-02
         7    1.58840D-03  0.00D+00  1.59D-03  5.65D+00    8.21674D-02
         8    1.78839D-03  0.00D+00  1.79D-03  5.91D+00    9.58619D-02
         9    2.06161D-03  0.00D+00  2.06D-03  6.24D+00    1.09557D-01

 *** THE REQUESTED    9 SOLUTION VECTORS CONVERGED

 Convergence of RSP solution vectors, threshold = 1.00D-03
 ---------------------------------------------------------------
 (dimension of paired reduced space:   72)
 RSP solution vector no.    1; norm of residual   2.32D-04
 RSP solution vector no.    2; norm of residual   2.33D-04
 RSP solution vector no.    3; norm of residual   2.36D-04
 RSP solution vector no.    4; norm of residual   2.43D-04
 RSP solution vector no.    5; norm of residual   2.52D-04
 RSP solution vector no.    6; norm of residual   2.64D-04
 RSP solution vector no.    7; norm of residual   2.81D-04
 RSP solution vector no.    8; norm of residual   3.03D-04
 RSP solution vector no.    9; norm of residual   3.30D-04

 *** RSPCTL MICROITERATIONS CONVERGED


           Final output of second order properties from linear response
           ------------------------------------------------------------


@ Spin symmetry of operators: singlet

 Note that minus the linear response function: - << A; B >>(omega) is printed.
 The results are of quadratic accuracy using Sellers formula.

@ FREQUENCY INDEPENDENT SECOND ORDER PROPERTIES

@ -<< XDIPLEN  ; XDIPLEN  >> =  2.370933417740E+01

@ FREQUENCY DEPENDENT SECOND ORDER PROPERTIES WITH FREQUENCY :

@    a.u.:  1.3694563D-02
@    cm-1:  3.0056090D+03
@    eV  :  3.7264800D-01
@  kJ/mol:  3.5955068D+01
@    nm  :  3.3271127D+03

@ -<< XDIPLEN  ; XDIPLEN  >> =  2.374083417198E+01

@ FREQUENCY DEPENDENT SECOND ORDER PROPERTIES WITH FREQUENCY :

@    a.u.:  2.7389125D-02
@    cm-1:  6.0112181D+03
@    eV  :  7.4529600D-01
@  kJ/mol:  7.1910137D+01
@    nm  :  1.6635564D+03

@ -<< XDIPLEN  ; XDIPLEN  >> =  2.383617375923E+01

@ FREQUENCY DEPENDENT SECOND ORDER PROPERTIES WITH FREQUENCY :

@    a.u.:  4.1083688D-02
@    cm-1:  9.0168271D+03
@    eV  :  1.1179440D+00
@  kJ/mol:  1.0786520D+02
@    nm  :  1.1090376D+03

@ -<< XDIPLEN  ; XDIPLEN  >> =  2.399794665955E+01

@ FREQUENCY DEPENDENT SECOND ORDER PROPERTIES WITH FREQUENCY :

@    a.u.:  5.4778250D-02
@    cm-1:  1.2022436D+04
@    eV  :  1.4905920D+00
@  kJ/mol:  1.4382027D+02
@    nm  :  8.3177818D+02

@ -<< XDIPLEN  ; XDIPLEN  >> =  2.423074028838E+01

@ FREQUENCY DEPENDENT SECOND ORDER PROPERTIES WITH FREQUENCY :

@    a.u.:  6.8472813D-02
@    cm-1:  1.5028045D+04
@    eV  :  1.8632400D+00
@  kJ/mol:  1.7977534D+02
@    nm  :  6.6542254D+02

@ -<< XDIPLEN  ; XDIPLEN  >> =  2.454158985993E+01

@ FREQUENCY DEPENDENT SECOND ORDER PROPERTIES WITH FREQUENCY :

@    a.u.:  8.2167375D-02
@    cm-1:  1.8033654D+04
@    eV  :  2.2358880D+00
@  kJ/mol:  2.1573041D+02
@    nm  :  5.5451878D+02

@ -<< XDIPLEN  ; XDIPLEN  >> =  2.494075085892E+01

@ FREQUENCY DEPENDENT SECOND ORDER PROPERTIES WITH FREQUENCY :

@    a.u.:  9.5861937D-02
@    cm-1:  2.1039263D+04
@    eV  :  2.6085360D+00
@  kJ/mol:  2.5168548D+02
@    nm  :  4.7530182D+02

@ -<< XDIPLEN  ; XDIPLEN  >> =  2.544299211313E+01

@ FREQUENCY DEPENDENT SECOND ORDER PROPERTIES WITH FREQUENCY :

@    a.u.:  1.0955650D-01
@    cm-1:  2.4044872D+04
@    eV  :  2.9811840D+00
@  kJ/mol:  2.8764055D+02
@    nm  :  4.1588909D+02

@ -<< XDIPLEN  ; XDIPLEN  >> =  2.606981147393E+01


 Time used in linear response calculation is      1.61 CPU seconds for symmetry 2
 ----------------------------------------------------------------
 ----- Linear response calculation
 ----- Symmetry of excitation/property operator(s)    3  ( B2 )
 ----------------------------------------------------------------

 Number of excitations of this symmetry            0
 Number of response properties of this symmetry    1
 Number of C6/C8 properties of this symmetry       0


 Perturbation symmetry.     KSYMOP:           3
 Perturbation spin symmetry.TRPLET:           F
 Orbital variables.         KZWOPT:         294
 Configuration variables.   KZCONF:           0
 Total number of variables. KZVAR :         294


 RSPLR -- linear response calculation for symmetry 3  ( B2 )
 RSPLR -- operator label : YDIPLEN 
 RSPLR -- operator spin  :   0
 RSPLR -- frequencies    :     0.000000  0.013695  0.027389  0.041084  0.054778
                               0.068473  0.082167  0.095862  0.109557



 ---  SOLVING SETS OF LINEAR EQUATIONS FOR LINEAR RESPONSE PROPERTIES ---

 Operator symmetry = 3  ( B2 ); triplet =   F


 ** RSPCTL MICROITERATION NUMBER    1

       No.  Residual tot.,    conf., and orb.    Bnorm      Frequency 
      ----------------------------------------------------------------
         1    1.47384D+00  0.00D+00  1.47D+00  4.82D+00    0.00000D+00
         2    1.47497D+00  0.00D+00  1.47D+00  4.83D+00    1.36946D-02
         3    1.47837D+00  0.00D+00  1.48D+00  4.87D+00    2.73891D-02
         4    1.48413D+00  0.00D+00  1.48D+00  4.94D+00    4.10837D-02
         5    1.49239D+00  0.00D+00  1.49D+00  5.04D+00    5.47783D-02
         6    1.50337D+00  0.00D+00  1.50D+00  5.17D+00    6.84728D-02
         7    1.51738D+00  0.00D+00  1.52D+00  5.35D+00    8.21674D-02
         8    1.53489D+00  0.00D+00  1.53D+00  5.56D+00    9.58619D-02
         9    1.55656D+00  0.00D+00  1.56D+00  5.84D+00    1.09557D-01

 ** RSPCTL MICROITERATION NUMBER    2

       No.  Residual tot.,    conf., and orb.    Bnorm      Frequency 
      ----------------------------------------------------------------
         1    1.56059D-01  0.00D+00  1.56D-01  5.05D+00    0.00000D+00
         2    1.56395D-01  0.00D+00  1.56D-01  5.06D+00    1.36946D-02
         3    1.57419D-01  0.00D+00  1.57D-01  5.11D+00    2.73891D-02
         4    1.59176D-01  0.00D+00  1.59D-01  5.19D+00    4.10837D-02
         5    1.61749D-01  0.00D+00  1.62D-01  5.30D+00    5.47783D-02
         6    1.65270D-01  0.00D+00  1.65D-01  5.45D+00    6.84728D-02
         7    1.69939D-01  0.00D+00  1.70D-01  5.65D+00    8.21674D-02
         8    1.76060D-01  0.00D+00  1.76D-01  5.90D+00    9.58619D-02
         9    1.84103D-01  0.00D+00  1.84D-01  6.23D+00    1.09557D-01

 ** RSPCTL MICROITERATION NUMBER    3

       No.  Residual tot.,    conf., and orb.    Bnorm      Frequency 
      ----------------------------------------------------------------
         1    1.10494D-02  0.00D+00  1.10D-02  5.05D+00    0.00000D+00
         2    1.11366D-02  0.00D+00  1.11D-02  5.07D+00    1.36946D-02
         3    1.14012D-02  0.00D+00  1.14D-02  5.11D+00    2.73891D-02
         4    1.18527D-02  0.00D+00  1.19D-02  5.19D+00    4.10837D-02
         5    1.25084D-02  0.00D+00  1.25D-02  5.30D+00    5.47783D-02
         6    1.33958D-02  0.00D+00  1.34D-02  5.46D+00    6.84728D-02
         7    1.45570D-02  0.00D+00  1.46D-02  5.65D+00    8.21674D-02
         8    1.60554D-02  0.00D+00  1.61D-02  5.91D+00    9.58619D-02
         9    1.79884D-02  0.00D+00  1.80D-02  6.24D+00    1.09557D-01

 ** RSPCTL MICROITERATION NUMBER    4

       No.  Residual tot.,    conf., and orb.    Bnorm      Frequency 
      ----------------------------------------------------------------
         1    1.18001D-03  0.00D+00  1.18D-03  5.05D+00    0.00000D+00
         2    1.18872D-03  0.00D+00  1.19D-03  5.07D+00    1.36946D-02
         3    1.21542D-03  0.00D+00  1.22D-03  5.11D+00    2.73891D-02
         4    1.26195D-03  0.00D+00  1.26D-03  5.19D+00    4.10837D-02
         5    1.33162D-03  0.00D+00  1.33D-03  5.30D+00    5.47783D-02
         6    1.42970D-03  0.00D+00  1.43D-03  5.46D+00    6.84728D-02
         7    1.56423D-03  0.00D+00  1.56D-03  5.65D+00    8.21674D-02
         8    1.74736D-03  0.00D+00  1.75D-03  5.91D+00    9.58619D-02
         9    1.99771D-03  0.00D+00  2.00D-03  6.24D+00    1.09557D-01

 *** THE REQUESTED    9 SOLUTION VECTORS CONVERGED

 Convergence of RSP solution vectors, threshold = 1.00D-03
 ---------------------------------------------------------------
 (dimension of paired reduced space:   72)
 RSP solution vector no.    1; norm of residual   2.34D-04
 RSP solution vector no.    2; norm of residual   2.35D-04
 RSP solution vector no.    3; norm of residual   2.38D-04
 RSP solution vector no.    4; norm of residual   2.43D-04
 RSP solution vector no.    5; norm of residual   2.51D-04
 RSP solution vector no.    6; norm of residual   2.62D-04
 RSP solution vector no.    7; norm of residual   2.77D-04
 RSP solution vector no.    8; norm of residual   2.96D-04
 RSP solution vector no.    9; norm of residual   3.20D-04

 *** RSPCTL MICROITERATIONS CONVERGED


           Final output of second order properties from linear response
           ------------------------------------------------------------


@ Spin symmetry of operators: singlet

 Note that minus the linear response function: - << A; B >>(omega) is printed.
 The results are of quadratic accuracy using Sellers formula.

@ FREQUENCY INDEPENDENT SECOND ORDER PROPERTIES

@ -<< YDIPLEN  ; YDIPLEN  >> =  2.370933426909E+01

@ FREQUENCY DEPENDENT SECOND ORDER PROPERTIES WITH FREQUENCY :

@    a.u.:  1.3694563D-02
@    cm-1:  3.0056090D+03
@    eV  :  3.7264800D-01
@  kJ/mol:  3.5955068D+01
@    nm  :  3.3271127D+03

@ -<< YDIPLEN  ; YDIPLEN  >> =  2.374083426493E+01

@ FREQUENCY DEPENDENT SECOND ORDER PROPERTIES WITH FREQUENCY :

@    a.u.:  2.7389125D-02
@    cm-1:  6.0112181D+03
@    eV  :  7.4529600D-01
@  kJ/mol:  7.1910137D+01
@    nm  :  1.6635564D+03

@ -<< YDIPLEN  ; YDIPLEN  >> =  2.383617385608E+01

@ FREQUENCY DEPENDENT SECOND ORDER PROPERTIES WITH FREQUENCY :

@    a.u.:  4.1083688D-02
@    cm-1:  9.0168271D+03
@    eV  :  1.1179440D+00
@  kJ/mol:  1.0786520D+02
@    nm  :  1.1090376D+03

@ -<< YDIPLEN  ; YDIPLEN  >> =  2.399794676323E+01

@ FREQUENCY DEPENDENT SECOND ORDER PROPERTIES WITH FREQUENCY :

@    a.u.:  5.4778250D-02
@    cm-1:  1.2022436D+04
@    eV  :  1.4905920D+00
@  kJ/mol:  1.4382027D+02
@    nm  :  8.3177818D+02

@ -<< YDIPLEN  ; YDIPLEN  >> =  2.423074040244E+01

@ FREQUENCY DEPENDENT SECOND ORDER PROPERTIES WITH FREQUENCY :

@    a.u.:  6.8472813D-02
@    cm-1:  1.5028045D+04
@    eV  :  1.8632400D+00
@  kJ/mol:  1.7977534D+02
@    nm  :  6.6542254D+02

@ -<< YDIPLEN  ; YDIPLEN  >> =  2.454158998879E+01

@ FREQUENCY DEPENDENT SECOND ORDER PROPERTIES WITH FREQUENCY :

@    a.u.:  8.2167375D-02
@    cm-1:  1.8033654D+04
@    eV  :  2.2358880D+00
@  kJ/mol:  2.1573041D+02
@    nm  :  5.5451878D+02

@ -<< YDIPLEN  ; YDIPLEN  >> =  2.494075100828E+01

@ FREQUENCY DEPENDENT SECOND ORDER PROPERTIES WITH FREQUENCY :

@    a.u.:  9.5861937D-02
@    cm-1:  2.1039263D+04
@    eV  :  2.6085360D+00
@  kJ/mol:  2.5168548D+02
@    nm  :  4.7530182D+02

@ -<< YDIPLEN  ; YDIPLEN  >> =  2.544299229043E+01

@ FREQUENCY DEPENDENT SECOND ORDER PROPERTIES WITH FREQUENCY :

@    a.u.:  1.0955650D-01
@    cm-1:  2.4044872D+04
@    eV  :  2.9811840D+00
@  kJ/mol:  2.8764055D+02
@    nm  :  4.1588909D+02

@ -<< YDIPLEN  ; YDIPLEN  >> =  2.606981168889E+01


 Time used in linear response calculation is      1.61 CPU seconds for symmetry 3

  Total CPU  time used in RESPONSE:   5.21 seconds
  Total wall time used in RESPONSE:   5.23 seconds


                   .-------------------------------------------.
                   | End of Dynamic Property Section (RESPONS) |
                   `-------------------------------------------'

  Total CPU  time used in DALTON:   7.23 seconds
  Total wall time used in DALTON:   7.29 seconds

 
     Date and time (Linux)  : Wed Jan 11 14:14:59 2023
     Host name              : cn041                                   
