

     ************************************************************************
     *************** Dalton - An Electronic Structure Program ***************
     ************************************************************************

    This is output from DALTON release Dalton2020.0 (2020)
         ( Web site: http://daltonprogram.org )

   ----------------------------------------------------------------------------

    NOTE:
     
    Dalton is an experimental code for the evaluation of molecular
    properties using (MC)SCF, DFT, CI, and CC wave functions.
    The authors accept no responsibility for the performance of
    the code or for the correctness of the results.
     
    The code (in whole or part) is provided under a licence and
    is not to be reproduced for further distribution without
    the written permission of the authors or their representatives.
     
    See the home page "http://daltonprogram.org" for further information.
     
    If results obtained with this code are published,
    the appropriate citations would be both of:
     
       K. Aidas, C. Angeli, K. L. Bak, V. Bakken, R. Bast,
       L. Boman, O. Christiansen, R. Cimiraglia, S. Coriani,
       P. Dahle, E. K. Dalskov, U. Ekstroem,
       T. Enevoldsen, J. J. Eriksen, P. Ettenhuber, B. Fernandez,
       L. Ferrighi, H. Fliegl, L. Frediani, K. Hald, A. Halkier,
       C. Haettig, H. Heiberg, T. Helgaker, A. C. Hennum,
       H. Hettema, E. Hjertenaes, S. Hoest, I.-M. Hoeyvik,
       M. F. Iozzi, B. Jansik, H. J. Aa. Jensen, D. Jonsson,
       P. Joergensen, J. Kauczor, S. Kirpekar,
       T. Kjaergaard, W. Klopper, S. Knecht, R. Kobayashi, H. Koch,
       J. Kongsted, A. Krapp, K. Kristensen, A. Ligabue,
       O. B. Lutnaes, J. I. Melo, K. V. Mikkelsen, R. H. Myhre,
       C. Neiss, C. B. Nielsen, P. Norman, J. Olsen,
       J. M. H. Olsen, A. Osted, M. J. Packer, F. Pawlowski,
       T. B. Pedersen, P. F. Provasi, S. Reine, Z. Rinkevicius,
       T. A. Ruden, K. Ruud, V. Rybkin, P. Salek, C. C. M. Samson,
       A. Sanchez de Meras, T. Saue, S. P. A. Sauer,
       B. Schimmelpfennig, K. Sneskov, A. H. Steindal,
       K. O. Sylvester-Hvid, P. R. Taylor, A. M. Teale,
       E. I. Tellgren, D. P. Tew, A. J. Thorvaldsen, L. Thoegersen,
       O. Vahtras, M. A. Watson, D. J. D. Wilson, M. Ziolkowski
       and H. Agren,
       "The Dalton quantum chemistry program system",
       WIREs Comput. Mol. Sci. 2014, 4:269–284 (doi: 10.1002/wcms.1172)
     
    and
     
       Dalton, a molecular electronic structure program,
       Release Dalton2020.0 (2020), see http://daltonprogram.org
   ----------------------------------------------------------------------------

    Authors in alphabetical order (Major contribution(s) in parenthesis):

  Kestutis Aidas,           Vilnius University,           Lithuania   (QM/MM)
  Celestino Angeli,         University of Ferrara,        Italy       (NEVPT2)
  Keld L. Bak,              UNI-C,                        Denmark     (AOSOPPA, non-adiabatic coupling, magnetic properties)
  Vebjoern Bakken,          University of Oslo,           Norway      (DALTON; geometry optimizer, symmetry detection)
  Radovan Bast,             UiT The Arctic U. of Norway,  Norway      (DALTON installation and execution frameworks)
  Pablo Baudin,             University of Valencia,       Spain       (Cholesky excitation energies)
  Linus Boman,              NTNU,                         Norway      (Cholesky decomposition and subsystems)
  Bruno N. Cabral Tenorio,  Technical Univ. of Denmark,   Denmark     (Lanczos-based CC methods)
  Ove Christiansen,         Aarhus University,            Denmark     (CC module)
  Renzo Cimiraglia,         University of Ferrara,        Italy       (NEVPT2)
  Sonia Coriani,            Technical Univ. of Denmark,   Denmark     (CC and RESPONS modules)
  Janusz Cukras,            University of Warsaw,         Poland      (MChD in RESPONS)
  Paal Dahle,               University of Oslo,           Norway      (Parallelization)
  Erik K. Dalskov,          UNI-C,                        Denmark     (SOPPA)
  Thomas Enevoldsen,        Univ. of Southern Denmark,    Denmark     (SOPPA)
  Janus J. Eriksen,         Aarhus University,            Denmark     (Polarizable embedding, TDA)
  Rasmus Faber,             Technical Univ. of Denmark,   Denmark     (Vib.avg. NMR w. SOPPA, parallel AO-SOPPA, CVS-CC and EOMCC)
  Tobias Fahleson,          KTH Stockholm,                Sweden      (Damped cubic response)
  Berta Fernandez,          U. of Santiago de Compostela, Spain       (Doublet spin, ESR in RESPONS)
  Lara Ferrighi,            Aarhus University,            Denmark     (PCM Cubic response)
  Heike Fliegl,             University of Oslo,           Norway      (CCSD(R12))
  Luca Frediani,            UiT The Arctic U. of Norway,  Norway      (PCM)
  Emmanuel Fromager,        Univ. Strasbourg,             France      (MC-srDFT)
  Bin Gao,                  UiT The Arctic U. of Norway,  Norway      (Gen1Int library)
  Andre S. P. Gomes,        CNRS/Universite de Lille,     France      (Frozen density embedding)
  Christof Haettig,         Ruhr-University Bochum,       Germany     (CC module)
  Kasper Hald,              Aarhus University,            Denmark     (CC module)
  Asger Halkier,            Aarhus University,            Denmark     (CC module)
  Frederik Beyer Hansen,    University of Copenhagen,     Denmark     (Parallel AO-SOPPA)
  Erik D. Hedegaard,        Univ. of Southern Denmark,    Denmark     (Polarizable embedding, QM/MM, and MC-srDFT)
  Hanne Heiberg,            University of Oslo,           Norway      (Geometry analysis, selected one-electron integrals)
  Trygve Helgaker,          University of Oslo,           Norway      (DALTON; ABACUS, ERI, DFT modules, London, and much more)
  Alf Christian Hennum,     University of Oslo,           Norway      (Parity violation)
  Hinne Hettema,            University of Auckland,       New Zealand (Quadratic response in RESPONS; SIRIUS supersymmetry)
  Eirik Hjertenaes,         NTNU,                         Norway      (Cholesky decomposition)
  Pi A. B. Haase,           University of Copenhagen,     Denmark     (Triplet AO-SOPPA)
  Maria Francesca Iozzi,    University of Oslo,           Norway      (RPA)
  Christoph Jacob           TU Braunschweig               Germany     (Frozen density embedding)
  Brano Jansik              Technical Univ. of Ostrava    Czech Rep.  (DFT cubic response)
  Hans Joergen Aa. Jensen,  Univ. of Southern Denmark,    Denmark     (DALTON; SIRIUS, RESPONS, ABACUS, MC-srDFT, and much more)
  Dan Jonsson,              UiT The Arctic U. of Norway,  Norway      (Cubic response in RESPONS module)
  Poul Joergensen,          Aarhus University,            Denmark     (RESPONS, ABACUS, and CC modules)
  Maciej Kaminski,          University of Warsaw,         Poland      (CPPh in RESPONS)
  Joanna Kauczor,           Linkoeping University,        Sweden      (Complex polarization propagator (CPP) module)
  Sheela Kirpekar,          Univ. of Southern Denmark,    Denmark     (Mass-velocity & Darwin integrals)
  Erik Kjellgren,           Univ. of Southern Denmark,    Denmark     (MC-srDFT)
  Wim Klopper,              KIT Karlsruhe,                Germany     (R12 code in CC, SIRIUS, and ABACUS modules)
  Stefan Knecht,            ETH Zurich,                   Switzerland (Parallel CI and MCSCF, MC-srDFT)
  Rika Kobayashi,           Australian National Univ.,    Australia   (DIIS in CC, London in MCSCF)
  Henrik Koch,              NTNU,                         Norway      (CC module, Cholesky decomposition)
  Jacob Kongsted,           Univ. of Southern Denmark,    Denmark     (Polarizable embedding, polarizable density embedding, QM/MM)
  Andrea Ligabue,           University of Modena,         Italy       (CTOCD, AOSOPPA)
  Nanna H. List             Univ. of Southern Denmark,    Denmark     (Polarizable embedding)
  Ola B. Lutnaes,           University of Oslo,           Norway      (DFT Hessian)
  Juan I. Melo,             University of Buenos Aires,   Argentina   (LRESC, Relativistic Effects on NMR Shieldings)
  Kurt V. Mikkelsen,        University of Copenhagen,     Denmark     (MC-SCRF and QM/MM)
  Rolf H. Myhre,            NTNU,                         Norway      (Subsystems and CC3)
  Christian Neiss,          Univ. Erlangen-Nuernberg,     Germany     (CCSD(R12))
  Christian B. Nielsen,     University of Copenhagen,     Denmark     (QM/MM)
  Patrick Norman,           KTH Stockholm,                Sweden      (Cubic response and complex frequency response in RESPONS)
  Jeppe Olsen,              Aarhus University,            Denmark     (SIRIUS CI/density modules)
  Jogvan Magnus H. Olsen,   Aarhus University,            Denmark     (Polarizable embedding and polarizable density embedding)
  Anders Osted,             Copenhagen University,        Denmark     (QM/MM)
  Martin J. Packer,         University of Sheffield,      UK          (SOPPA)
  Filip Pawlowski,          Kazimierz Wielki University,  Poland      (CC3)
  Morten N. Pedersen,       Univ. of Southern Denmark,    Denmark     (Polarizable embedding)
  Thomas B. Pedersen,       University of Oslo,           Norway      (Cholesky decomposition)
  Patricio F. Provasi,      University of Northeastern,   Argentina   (Analysis of coupling constants in localized orbitals)
  Peter Reinholdt,          Univ. of Southern Denmark,    Denmark     (Polarizable embedding and polarizable density embedding)
  Zilvinas Rinkevicius,     KTH Stockholm,                Sweden      (open-shell DFT, ESR)
  Elias Rudberg,            KTH Stockholm,                Sweden      (DFT grid and basis info)
  Torgeir A. Ruden,         University of Oslo,           Norway      (Numerical derivatives in ABACUS)
  Kenneth Ruud,             UiT The Arctic U. of Norway,  Norway      (DALTON; ABACUS magnetic properties and much more)
  Pawel Salek,              KTH Stockholm,                Sweden      (DALTON; DFT code)
  Claire C. M. Samson       University of Karlsruhe       Germany     (Boys localization, r12 integrals in ERI)
  Alfredo Sanchez de Meras, University of Valencia,       Spain       (CC module, Cholesky decomposition)
  Trond Saue,               Paul Sabatier University,     France      (direct Fock matrix construction)
  Stephan P. A. Sauer,      University of Copenhagen,     Denmark     (SOPPA(CCSD), SOPPA prop., AOSOPPA, vibrational g-factors)
  Bernd Schimmelpfennig,    Forschungszentrum Karlsruhe,  Germany     (AMFI module)
  Anna K. Schnack-Petersen, University of Copenhagen,     Denmark     (RPA(D) and HRPA(D) properties in AOSOPPA)
  Kristian Sneskov,         Aarhus University,            Denmark     (Polarizable embedding, QM/MM)
  Arnfinn H. Steindal,      UiT The Arctic U. of Norway,  Norway      (parallel QM/MM, polarizable embedding)
  Casper Steinmann,         Aalborg University,           Denmark     (QFIT, polarizable embedding)
  K. O. Sylvester-Hvid,     University of Copenhagen,     Denmark     (MC-SCRF)
  Peter R. Taylor,          VLSCI/Univ. of Melbourne,     Australia   (Symmetry handling ABACUS, integral transformation)
  Andrew M. Teale,          University of Nottingham,     England     (DFT-AC, DFT-D)
  David P. Tew,             University of Bristol,        England     (CCSD(R12))
  Julien Toulouse,          Sorbonne Univ.,               France      (MC-srDFT)
  Olav Vahtras,             KTH Stockholm,                Sweden      (Triplet response, spin-orbit, ESR, TDDFT, open-shell DFT)
  Lucas Visscher,           Vrije Universiteit Amsterdam, Netherlands (Frozen density embedding)
  David J. Wilson,          La Trobe University,          Australia   (DFT Hessian and DFT magnetizabilities)
  Hans Agren,               KTH Stockholm,                Sweden      (SIRIUS module, RESPONS, MC-SCRF solvation)
 --------------------------------------------------------------------------------

     Date and time (Linux)  : Wed Jan 11 14:15:50 2023
     Host name              : cn041                                   

 * Work memory size             :    64000000 =  488.28 megabytes.

 * Directories for basis set searches:
   1) /gpfs/projects/rjh/adrian/fd_compare/dalton/hf/LiCl/dipole
   2) /gpfs/projects/rjh/adrian/dalton/build/basis


Compilation information
-----------------------

 Who compiled             | ahurtado
 Host                     | sn-mem
 System                   | Linux-3.10.0-1160.24.1.el7.x86_64
 CMake generator          | Unix Makefiles
 Processor                | x86_64
 64-bit integers          | OFF
 MPI                      | ON
 Fortran compiler         | /gpfs/software/intel/oneAPI/2021_4/mpi/2021.4.0/bi
                          | n/mpif90
 Fortran compiler version | GNU Fortran (GCC) 11.2.0
 C compiler               | /gpfs/software/intel/oneAPI/2021_4/mpi/2021.4.0/bi
                          | n/mpicc
 C compiler version       | gcc (GCC) 11.2.0
 C++ compiler             | /gpfs/software/intel/oneAPI/2021_4/mpi/2021.4.0/bi
                          | n/mpicxx
 C++ compiler version     | unknown
 BLAS                     | /gpfs/software/intel/oneAPI/2021_4/mkl/2021.4.0/li
                          | b/intel64/libmkl_gf_lp64.so;/gpfs/software/intel/o
                          | neAPI/2021_4/mkl/2021.4.0/lib/intel64/libmkl_seque
                          | ntial.so;/gpfs/software/intel/oneAPI/2021_4/mkl/20
                          | 21.4.0/lib/intel64/libmkl_core.so;/usr/lib64/libpt
                          | hread.so;/usr/lib64/libm.so
 LAPACK                   | /gpfs/software/intel/oneAPI/2021_4/mkl/2021.4.0/li
                          | b/intel64/libmkl_lapack95_lp64.a;/gpfs/software/in
                          | tel/oneAPI/2021_4/mkl/2021.4.0/lib/intel64/libmkl_
                          | gf_lp64.so
 Static linking           | OFF
 Last Git revision        | 66052b3af5ea7225e31178bf9a8b031913c72190
 Git branch               | (HEAD detached at Dalton2020.0)
 Configuration time       | 2023-01-11 13:33:37.731835

 * MPI parallel run using 20 processes.


   Content of the .dal input file
 ----------------------------------

**DALTON INPUT
.RUN RESPONSE
.DIRECT
**WAVE FUNCTIONS
.HF
**RESPONSE
*LINEAR
.DIPLEN
.FREQUENCIES
9
0.0 0.0136945625 0.027389125 0.0410836875 0.05477825 0.06847281250000001 0.082167375 0.0958619375 0.
**END OF DALTON INPUT


   Content of the .mol file
 ----------------------------

BASIS
aug-cc-pCVDZ
blah
blah
Atomtype=2 Atomic
Charge=3 Atoms=1
Li_a 0.000000000000 0.000000000000 0.000000000000
Charge=17 Atoms=1
Cl_a 0.000000000000 0.000000000000 3.818500000000


       *******************************************************************
       *********** Output from DALTON general input processing ***********
       *******************************************************************

 --------------------------------------------------------------------------------
   Overall default print level:    0
   Print level for DALTON.STAT:    1

    Parallel calculation using MPI
    AO-direct calculation (in sections where implemented)
    HERMIT 1- and 2-electron integral sections will be executed
    "Old" integral transformation used (limited to max 255 basis functions)
    Wave function sections will be executed (SIRIUS module)
    Dynamic molecular response properties section will be executed (RESPONSE module)
 --------------------------------------------------------------------------------


   ****************************************************************************
   *************** Output of molecule and basis set information ***************
   ****************************************************************************


    The two title cards from your ".mol" input:
    ------------------------------------------------------------------------
 1: blah                                                                    
 2: blah                                                                    
    ------------------------------------------------------------------------

  Atomic type no.    1
  --------------------
  Nuclear charge:   3.00000
  Number of symmetry independent centers:    1
  Number of basis sets to read;    2
  Basis set file used for this atomic type with Z =   3 :
     "/gpfs/projects/rjh/adrian/dalton/build/basis/aug-cc-pCVDZ"

  Atomic type no.    2
  --------------------
  Nuclear charge:  17.00000
  Number of symmetry independent centers:    1
  Number of basis sets to read;    2
  Basis set file used for this atomic type with Z =  17 :
     "/gpfs/projects/rjh/adrian/dalton/build/basis/aug-cc-pCVDZ"


                      SYMADD: Requested addition of symmetry
                      --------------------------------------

 Symmetry test threshold:  5.00E-06

@   The molecule is centered at center of mass and rotated
@   so principal axes of inertia are along coordinate axes.

 Symmetry class found: C(oo,v)        

 Symmetry Independent Centres             
 ----------------------------
Cl_a  17 :      0.00000000     0.00000000     0.63810184  Isotope  1
Li_a   3 :      0.00000000     0.00000000    -3.18039816  Isotope  1

 The following symmetry elements were found:   X  Y     


                         SYMGRP: Point group information
                         -------------------------------

@    Full point group is: C(oo,v)        
@    Represented as:      C2v

@  * The irrep name for each symmetry:    1: A1     2: B1     3: B2     4: A2 

   * The point group was generated by:

      Reflection in the yz-plane
      Reflection in the xz-plane

   * Group multiplication table

        |  E   C2z  Oxz  Oyz
   -----+--------------------
     E  |  E   C2z  Oxz  Oyz
    C2z | C2z   E   Oyz  Oxz
    Oxz | Oxz  Oyz   E   C2z
    Oyz | Oyz  Oxz  C2z   E 

   * Character table

        |  E   C2z  Oxz  Oyz
   -----+--------------------
    A1  |   1    1    1    1
    B1  |   1   -1    1   -1
    B2  |   1   -1   -1    1
    A2  |   1    1   -1   -1

   * Direct product table

        | A1   B1   B2   A2 
   -----+--------------------
    A1  | A1   B1   B2   A2 
    B1  | B1   A1   A2   B2 
    B2  | B2   A2   A1   B1 
    A2  | A2   B2   B1   A1 


                                 Isotopic Masses
                                 ---------------

                           Li_a        7.016005
                           Cl_a       34.968853

                       Total mass:    41.984858 amu
                       Natural abundance:  70.087 %

 Center-of-mass coordinates (a.u.):    0.000000    0.000000    0.000000
 Center-of-mass coordinates (Angs):    0.000000    0.000000    0.000000


  Atoms and basis sets
  --------------------

  Number of atom types :    2
  Total number of atoms:    2

  Basis set used is "aug-cc-pCVDZ" from the basis set library.

  label    atoms   charge   prim   cont     basis
  ----------------------------------------------------------------------
  Li          1    3.0000    39    27      [11s6p2d|5s4p2d]                                   
  Cl          1   17.0000    59    36      [14s10p3d|6s5p3d]                                  
  ----------------------------------------------------------------------
  total:      2   20.0000    98    63
  ----------------------------------------------------------------------
  Spherical harmonic basis used.

  Threshold for neglecting AO integrals:  1.00D-12


  Cartesian Coordinates (a.u.)
  ----------------------------

  Total number of coordinates:    6
  Li_a    :     1  x   0.0000000000    2  y   0.0000000000    3  z  -3.1803981612
  Cl_a    :     4  x   0.0000000000    5  y   0.0000000000    6  z   0.6381018388


  Symmetry Coordinates
  --------------------

  Number of coordinates in each symmetry:     2    2    2    0

  Symmetry  A1  ( 1)

    1   Li_a  z    3
    2   Cl_a  z    6

  Symmetry  B1  ( 2)

    3   Li_a  x    1
    4   Cl_a  x    4

  Symmetry  B2  ( 3)

    5   Li_a  y    2
    6   Cl_a  y    5


   Interatomic separations (in Angstrom):
   --------------------------------------

            Li_a        Cl_a  
            ------      ------
 Li_a  :    0.000000
 Cl_a  :    2.020663    0.000000


  Max    interatomic separation is    2.0207 Angstrom (    3.8185 Bohr)
  between atoms    2 and    1, "Cl_a  " and "Li_a  ".

  Min YX interatomic separation is    2.0207 Angstrom (    3.8185 Bohr)


  Bond distances (Angstrom):
  --------------------------

                  atom 1     atom 2       distance
                  ------     ------       --------
  bond distance:  Cl_a       Li_a         2.020663




 Principal moments of inertia (u*A**2) and principal axes
 --------------------------------------------------------

   IA       0.000000          0.000000    0.000000    1.000000
   IB      23.859781          0.000000    1.000000    0.000000
   IC      23.859781          1.000000    0.000000    0.000000


 Rotational constants
 --------------------

@    The molecule is linear.

               B =        21181.21 MHz     (    0.706529 cm-1)


@  Nuclear repulsion energy :   13.356029854655 Hartree


  Symmetry Orbitals
  -----------------

  Number of orbitals in each symmetry:          30   14   14    5


  Symmetry  A1 ( 1)

    1     Li_a     1s         1
    2     Li_a     1s         2
    3     Li_a     1s         3
    4     Li_a     1s         4
    5     Li_a     1s         5
    6     Li_a     2pz        8
    7     Li_a     2pz       11
    8     Li_a     2pz       14
    9     Li_a     2pz       17
   10     Li_a     3d0       20
   11     Li_a     3d2+      22
   12     Li_a     3d0       25
   13     Li_a     3d2+      27
   14     Cl_a     1s        28
   15     Cl_a     1s        29
   16     Cl_a     1s        30
   17     Cl_a     1s        31
   18     Cl_a     1s        32
   19     Cl_a     1s        33
   20     Cl_a     2pz       36
   21     Cl_a     2pz       39
   22     Cl_a     2pz       42
   23     Cl_a     2pz       45
   24     Cl_a     2pz       48
   25     Cl_a     3d0       51
   26     Cl_a     3d2+      53
   27     Cl_a     3d0       56
   28     Cl_a     3d2+      58
   29     Cl_a     3d0       61
   30     Cl_a     3d2+      63


  Symmetry  B1 ( 2)

   31     Li_a     2px        6
   32     Li_a     2px        9
   33     Li_a     2px       12
   34     Li_a     2px       15
   35     Li_a     3d1+      21
   36     Li_a     3d1+      26
   37     Cl_a     2px       34
   38     Cl_a     2px       37
   39     Cl_a     2px       40
   40     Cl_a     2px       43
   41     Cl_a     2px       46
   42     Cl_a     3d1+      52
   43     Cl_a     3d1+      57
   44     Cl_a     3d1+      62


  Symmetry  B2 ( 3)

   45     Li_a     2py        7
   46     Li_a     2py       10
   47     Li_a     2py       13
   48     Li_a     2py       16
   49     Li_a     3d1-      19
   50     Li_a     3d1-      24
   51     Cl_a     2py       35
   52     Cl_a     2py       38
   53     Cl_a     2py       41
   54     Cl_a     2py       44
   55     Cl_a     2py       47
   56     Cl_a     3d1-      50
   57     Cl_a     3d1-      55
   58     Cl_a     3d1-      60


  Symmetry  A2 ( 4)

   59     Li_a     3d2-      18
   60     Li_a     3d2-      23
   61     Cl_a     3d2-      49
   62     Cl_a     3d2-      54
   63     Cl_a     3d2-      59

  Symmetries of electric field:  B1 (2)  B2 (3)  A1 (1)

  Symmetries of magnetic field:  B2 (3)  B1 (2)  A2 (4)


                     .---------------------------------------.
                     | Starting in Integral Section (HERMIT) |
                     `---------------------------------------'



 ***************************************************************************************
 ****************** Output from **INTEGRALS input processing (HERMIT) ******************
 ***************************************************************************************


 - Using defaults, no **INTEGRALS input found

 Default print level:        1

 Calculation of one-electron Hamiltonian integrals.

 Center of mass  (bohr):      0.000000000000      0.000000000000      0.000000000000
 Operator center (bohr):      0.000000000000      0.000000000000      0.000000000000
 Gauge origin    (bohr):      0.000000000000      0.000000000000      0.000000000000
 Dipole origin   (bohr):      0.000000000000      0.000000000000      0.000000000000


     ************************************************************************
     ************************** Output from HERINT **************************
     ************************************************************************



                      Nuclear contribution to dipole moments
                      --------------------------------------

                 au               Debye          C m (/(10**-30)

      z      1.30653678         3.32088503        11.07728009


  Total CPU  time used in HERMIT:   0.10 seconds
  Total wall time used in HERMIT:   0.10 seconds


                        .----------------------------------.
                        | End of Integral Section (HERMIT) |
                        `----------------------------------'



                   .--------------------------------------------.
                   | Starting in Wave Function Section (SIRIUS) |
                   `--------------------------------------------'


 *** Output from Huckel module :

     Using EWMO model:          T
     Using EHT  model:          F
     Number of Huckel orbitals each symmetry:   10    4    4    1

 EWMO - Energy Weighted Maximum Overlap - is a Huckel type method,
        which normally is better than Extended Huckel Theory.
 Reference: Linderberg and Ohrn, Propagators in Quantum Chemistry (Wiley, 1973)

 Huckel EWMO eigenvalues for symmetry :  1
         -104.883964     -10.609452      -8.072241      -2.486708      -1.123908
           -0.513960      -0.171611      -0.085660      -0.055556      -0.054851

 Huckel EWMO eigenvalues for symmetry :  2
           -8.072216      -0.518935      -0.119286      -0.053719

 Huckel EWMO eigenvalues for symmetry :  3
           -8.072216      -0.518935      -0.119286      -0.053719

 Huckel EWMO eigenvalues for symmetry :  4
           -0.055556

 **********************************************************************
 *SIRIUS* a direct, restricted step, second order MCSCF program       *
 **********************************************************************

 
     Date and time (Linux)  : Wed Jan 11 14:15:50 2023
     Host name              : cn041                                   

 Title lines from ".mol" input file:
     blah                                                                    
     blah                                                                    

 Print level on unit LUPRI =   2 is   0
 Print level on unit LUW4  =   2 is   5

@    Restricted, closed shell Hartree-Fock calculation.

@    Time-dependent Hartree-Fock calculation (random phase approximation).
 Fock matrices are calculated directly and in parallel without use of integrals on disk.

 Initial molecular orbitals are obtained according to
 ".MOSTART EWMO  " input option

     Wave function specification
     ============================
@    Wave function type        --- HF ---
@    Number of closed shell electrons          20
@    Number of electrons in active shells       0
@    Total charge of the molecule               0

@    Spin multiplicity and 2 M_S                1         0
@    Total number of symmetries                 4 (point group: C2v)
@    Reference state symmetry                   1 (irrep name : A1 )

     Orbital specifications
     ======================
@    Abelian symmetry species          All |    1    2    3    4
@                                          |  A1   B1   B2   A2 
                                       --- |  ---  ---  ---  ---
@    Total number of orbitals           63 |   30   14   14    5
@    Number of basis functions          63 |   30   14   14    5

      ** Automatic occupation of RHF orbitals **

      -- Initial occupation of symmetries is determined from extended Huckel guess.           
      -- Initial occupation of symmetries is :
@    Occupied SCF orbitals              10 |    6    2    2    0

     Maximum number of Fock   iterations      0
     Maximum number of DIIS   iterations     60
     Maximum number of QC-SCF iterations     60
     Threshold for SCF convergence     1.00D-05


 ***********************************************
 ***** DIIS acceleration of SCF iterations *****
 ***********************************************

 C1-DIIS algorithm; max error vectors =    8

 Automatic occupation of symmetries with  20 electrons.

 Iter     Total energy    Error norm  Delta(E)    SCF occupation
 -----------------------------------------------------------------------------
   1  Screening settings (-IFTHRS, JTDIIS, DIFDEN, times)   -7    1    T  4.79D-02  4.80D-02
@  1  -466.994401189       7.06D-01  -4.67D+02     6   2   2   0
      Virial theorem: -V/T =      1.997322
@    MULPOP   Li_a    0.73; Cl_a   -0.73; 
   1  Level shift: doubly occupied orbital energies shifted by -2.00D-01
 -----------------------------------------------------------------------------
   2  Screening settings (-IFTHRS, JTDIIS, DIFDEN, times)   -7    2    T  2.53D-02  2.50D-02
@  2  -467.033853253       2.27D-01  -3.95D-02     6   2   2   0
      Virial theorem: -V/T =      2.000918
@    MULPOP   Li_a    0.59; Cl_a   -0.59; 
   2  Level shift: doubly occupied orbital energies shifted by -1.00D-01
 -----------------------------------------------------------------------------
   3  Screening settings (-IFTHRS, JTDIIS, DIFDEN, times)   -7    3    T  2.39D-02  2.30D-02
@  3  -467.037244896       5.47D-02  -3.39D-03     6   2   2   0
      Virial theorem: -V/T =      1.999978
@    MULPOP   Li_a    0.55; Cl_a   -0.55; 
   3  Level shift: doubly occupied orbital energies shifted by -2.50D-02
 -----------------------------------------------------------------------------
   4  Screening settings (-IFTHRS, JTDIIS, DIFDEN, times)  -11    4    F  2.39D-02  2.40D-02
@  4  -467.037956205       1.71D-02  -7.11D-04     6   2   2   0
      Virial theorem: -V/T =      2.000028
@    MULPOP   Li_a    0.53; Cl_a   -0.53; 
   4  Level shift: doubly occupied orbital energies shifted by -1.25D-02
 -----------------------------------------------------------------------------
   5  Screening settings (-IFTHRS, JTDIIS, DIFDEN, times)  -11    5    T  2.36D-02  2.40D-02
@  5  -467.038037322       4.50D-03  -8.11D-05     6   2   2   0
      Virial theorem: -V/T =      2.000033
@    MULPOP   Li_a    0.52; Cl_a   -0.52; 
 -----------------------------------------------------------------------------
   6  Screening settings (-IFTHRS, JTDIIS, DIFDEN, times)  -11    6    T  2.37D-02  2.40D-02
@  6  -467.038044399       1.10D-03  -7.08D-06     6   2   2   0
      Virial theorem: -V/T =      2.000043
@    MULPOP   Li_a    0.52; Cl_a   -0.52; 
 -----------------------------------------------------------------------------
   7  Screening settings (-IFTHRS, JTDIIS, DIFDEN, times)  -11    7    T  2.36D-02  2.40D-02
@  7  -467.038044791       2.25D-04  -3.92D-07     6   2   2   0
      Virial theorem: -V/T =      2.000041
@    MULPOP   Li_a    0.52; Cl_a   -0.52; 
 -----------------------------------------------------------------------------
   8  Screening settings (-IFTHRS, JTDIIS, DIFDEN, times)  -11    8    T  2.41D-02  2.40D-02
@  8  -467.038044801       5.53D-05  -9.70D-09     6   2   2   0
      Virial theorem: -V/T =      2.000042
@    MULPOP   Li_a    0.52; Cl_a   -0.52; 
 -----------------------------------------------------------------------------
   9  Screening settings (-IFTHRS, JTDIIS, DIFDEN, times)  -11    9    T  2.37D-02  2.30D-02
@  9  -467.038044801       1.13D-05  -5.05D-10     6   2   2   0
      Virial theorem: -V/T =      2.000042
@    MULPOP   Li_a    0.52; Cl_a   -0.52; 
 -----------------------------------------------------------------------------
  10  Screening settings (-IFTHRS, JTDIIS, DIFDEN, times)  -11   10    T  2.36D-02  2.30D-02
@ 10  -467.038044801       3.24D-06  -1.96D-11     6   2   2   0

@ *** DIIS converged in  10 iterations !
@     Converged SCF energy, gradient:   -467.038044801221    3.24D-06
    - total time used in SIRFCK :              0.00 seconds


 *** SCF orbital energy analysis ***

 Only the 20 lowest virtual orbital energies printed in each symmetry.

 Number of electrons :   20
 Orbital occupations :    6    2    2    0

 Sym       Hartree-Fock orbital energies

1 A1   -104.73107752   -10.45692336    -7.92338336    -2.48865388    -0.97475847
         -0.40977004    -0.01574635     0.01606677     0.02999077     0.07650606
          0.15868810     0.17608524     0.18554519     0.21246710     0.31782167
          0.45267910     0.52678894     0.57854630     0.61681425     0.77547851
          1.20992825     1.47094047     1.54972841     1.60533737     4.20822159
          6.03511564

2 B1     -7.92237666    -0.38024223     0.01223136     0.04906581     0.16943660
          0.19762240     0.25321220     0.55418754     0.71412831     1.05112145
          1.55647272     5.58824959    12.56247774    16.15021002

3 B2     -7.92237666    -0.38024223     0.01223136     0.04906581     0.16943660
          0.19762240     0.25321220     0.55418754     0.71412831     1.05112145
          1.55647272     5.58824959    12.56247774    16.15021002

4 A2      0.18554519     0.52678894     0.57854630     1.47094047    16.13967193


    E(LUMO) :    -0.01574635 au (symmetry 1)
  - E(HOMO) :    -0.38024223 au (symmetry 2)
  ------------------------------------------
    gap     :     0.36449588 au

 --- Writing SIRIFC interface file

 CPU and wall time for SCF :       0.277       0.281


                       .-----------------------------------.
                       | --- Final results from SIRIUS --- |
                       `-----------------------------------'


@    Spin multiplicity:           1
@    Spatial symmetry:            1 ( irrep  A1  in C2v )
@    Total charge of molecule:    0

@    Final HF energy:            -467.038044801221                 
@    Nuclear repulsion:            13.356029854655
@    Electronic energy:          -480.394074655876

@    Final gradient norm:           0.000003236966

 
     Date and time (Linux)  : Wed Jan 11 14:15:50 2023
     Host name              : cn041                                   

File label for MO orbitals:  11Jan23   FOCKDIIS

 (Only coefficients > 0.0100 are printed.)

 Molecular orbitals for symmetry species 1  (A1 )
 ------------------------------------------------

    Orbital         1        2        3        4        5        6        7
   1 Li_a:1s     0.0001   0.0021   0.0007  -0.9922  -0.0329  -0.0287   0.0344
   2 Li_a:1s     0.0005   0.0071   0.0023   0.0225   0.0390   0.2093  -0.1146
   3 Li_a:1s    -0.0001  -0.0020   0.0006   0.0170   0.0276   0.1009  -0.2602
   4 Li_a:1s     0.0001   0.0014   0.0006   0.0030  -0.0057  -0.0059   0.0181
   5 Li_a:1s     0.0000   0.0002   0.0000  -0.0037  -0.0070  -0.0244  -0.5266
   7 Li_a:2pz    0.0005   0.0070   0.0019   0.0259   0.0487   0.2233   0.1816
   8 Li_a:2pz   -0.0001  -0.0019   0.0003   0.0005   0.0006  -0.0038   0.3463
   9 Li_a:2pz    0.0000   0.0003  -0.0000  -0.0002  -0.0010  -0.0013   0.1763
  10 Li_a:3d0    0.0002   0.0026   0.0001   0.0059   0.0096   0.0413  -0.0020
  12 Li_a:3d0    0.0000   0.0003   0.0005   0.0025   0.0045   0.0141  -0.0180
  14 Cl_a:1s     0.9999   0.0003  -0.0001   0.0004  -0.0030  -0.0012  -0.0001
  15 Cl_a:1s     0.0001   1.0040   0.0014   0.0027  -0.0204  -0.0096  -0.0004
  16 Cl_a:1s     0.0007   0.0102  -0.0002  -0.0014   0.9306  -0.1046   0.0363
  17 Cl_a:1s    -0.0012  -0.0186  -0.0004  -0.0110   0.0333  -0.0214   0.0214
  19 Cl_a:1s    -0.0000   0.0018  -0.0030  -0.0322  -0.0186  -0.2361  -0.0619
  20 Cl_a:2pz   -0.0001  -0.0015   0.9998  -0.0007   0.0021   0.0039  -0.0002
  21 Cl_a:2pz   -0.0001  -0.0014  -0.0019   0.0047  -0.0295  -0.9069  -0.0607
  22 Cl_a:2pz    0.0004   0.0054   0.0018   0.0117  -0.0085   0.0178  -0.0008
  24 Cl_a:2pz    0.0001   0.0006   0.0002   0.0088   0.0189   0.0367  -0.0434
  27 Cl_a:3d0    0.0000   0.0002  -0.0001  -0.0016   0.0069   0.0161   0.0001
  29 Cl_a:3d0   -0.0001  -0.0012  -0.0004  -0.0034   0.0110   0.0230   0.0066

    Orbital         8        9       10       11       12       13       14
   1 Li_a:1s     0.0728   0.0491  -0.0393  -0.4208   0.2505  -0.0000  -0.5062
   2 Li_a:1s     0.0903   0.0183  -0.2717  -1.7704   0.7114   0.0000  -1.8694
   3 Li_a:1s    -0.6355  -1.8094  -1.6117   2.4399   1.8099   0.0000   2.1362
   4 Li_a:1s     0.0362   0.0220  -0.0179  -0.1805   0.1358   0.0000  -0.2434
   5 Li_a:1s     0.4103   1.6426   0.3104  -0.8881  -0.5377  -0.0000  -0.1946
   7 Li_a:2pz    0.1199   0.0591  -0.0324   0.6698   0.5085   0.0000  -0.3007
   8 Li_a:2pz    0.4176  -0.0432  -1.8248  -0.5749   0.4074   0.0000   1.5013
   9 Li_a:2pz   -1.0743   0.3747   0.5823   0.1373  -0.2335   0.0000  -0.1675
  10 Li_a:3d0   -0.0121   0.0431   0.0334   0.0231  -0.2941   0.0000  -0.5888
  11 Li_a:3d2+  -0.0000   0.0000  -0.0000   0.0000   0.0000  -0.5232   0.0000
  12 Li_a:3d0    0.0162  -0.1314  -0.1022  -0.3933   0.7883  -0.0000   1.7229
  13 Li_a:3d2+   0.0000  -0.0000   0.0000  -0.0000  -0.0000   1.4335  -0.0000
  15 Cl_a:1s     0.0001   0.0071   0.0544  -0.0162  -0.0140  -0.0000  -0.0366
  16 Cl_a:1s     0.0337   0.0057   0.2312  -0.0759  -0.0863  -0.0000   0.0565
  17 Cl_a:1s     0.0225  -0.0656  -0.2972   0.1041   0.0899   0.0000   0.2962
  19 Cl_a:1s    -0.0986   0.4445   1.7457  -0.0140  -1.9273  -0.0000  -1.7056
  21 Cl_a:2pz   -0.0279  -0.0464  -0.0339   0.0150  -0.1877  -0.0000  -0.0683
  22 Cl_a:2pz   -0.0030   0.0220  -0.1017  -0.0910  -0.2555   0.0000  -0.0734
  24 Cl_a:2pz    0.0502  -0.3232  -0.1404   0.2203   1.8133   0.0000  -1.2588
  27 Cl_a:3d0    0.0016  -0.0034   0.0049  -0.0065   0.0328  -0.0000  -0.0450
  28 Cl_a:3d2+   0.0000  -0.0000  -0.0000   0.0000   0.0000   0.0336   0.0000
  29 Cl_a:3d0   -0.0044   0.0089   0.0182   0.0059  -0.0473  -0.0000   0.1458
  30 Cl_a:3d2+  -0.0000  -0.0000  -0.0000   0.0000  -0.0000  -0.0156   0.0000

    Orbital        15       16
   1 Li_a:1s    -0.5170   0.2321
   2 Li_a:1s    -1.5110   1.0515
   3 Li_a:1s    -1.7015   1.8480
   4 Li_a:1s    -0.2747   0.1117
   5 Li_a:1s     0.3192  -0.1767
   6 Li_a:2pz    0.0141  -0.0016
   7 Li_a:2pz   -0.6417   1.3181
   8 Li_a:2pz   -0.6073   1.0283
   9 Li_a:2pz    0.1774  -0.1645
  10 Li_a:3d0   -0.6739  -1.6367
  12 Li_a:3d0    0.9471   2.0995
  14 Cl_a:1s     0.0214  -0.0155
  15 Cl_a:1s     0.1576  -0.1175
  16 Cl_a:1s    -0.0029  -0.2792
  17 Cl_a:1s    -1.5434   0.9524
  19 Cl_a:1s     4.1228  -3.9515
  20 Cl_a:2pz    0.0130   0.0001
  21 Cl_a:2pz    0.1070   0.3478
  22 Cl_a:2pz   -0.3731  -0.0489
  24 Cl_a:2pz   -1.5488   0.3739
  27 Cl_a:3d0   -0.0480   0.0861
  29 Cl_a:3d0    0.1272   0.3203

 Molecular orbitals for symmetry species 2  (B1 )
 ------------------------------------------------

    Orbital         1        2        3        4        5        6        7
   2 Li_a:2px    0.0003  -0.0787   0.0644   0.1202  -1.0982   0.2682   0.7918
   3 Li_a:2px   -0.0002   0.0182  -0.0082   1.3588   1.3821   0.7614   0.4660
   4 Li_a:2px    0.0000  -0.0047   1.0156  -0.6629  -0.3667  -0.0276  -0.0256
   5 Li_a:3d1+   0.0002  -0.0259   0.0070  -0.0135  -0.1610  -0.0414  -0.6672
   6 Li_a:3d1+   0.0000   0.0053  -0.0277  -0.0535   0.7280   0.2891   2.0003
   7 Cl_a:2px   -0.9999   0.0040  -0.0012  -0.0040  -0.0003  -0.0187   0.0099
   8 Cl_a:2px    0.0019  -0.9104  -0.0469  -0.1265   0.1037   0.1988  -0.1383
   9 Cl_a:2px   -0.0008  -0.0341   0.0125   0.0460   0.0340   0.4356  -0.2842
  11 Cl_a:2px    0.0005  -0.0601  -0.0925  -0.4210  -0.5914  -1.8979  -1.1677
  13 Cl_a:3d1+   0.0001   0.0117  -0.0023  -0.0111   0.0219  -0.0322  -0.0603
  14 Cl_a:3d1+   0.0001   0.0201   0.0042  -0.0015   0.0338   0.0392  -0.0383

    Orbital         8        9       10       11       12
   1 Li_a:2px   -0.0019  -0.0112   0.0051  -0.0082   1.0150
   2 Li_a:2px    0.1900   0.9752  -0.4996   0.6329  -0.2880
   3 Li_a:2px    0.5480  -0.2362   0.3802   0.0296   0.1000
   4 Li_a:2px   -0.0624   0.0734  -0.0443   0.0114  -0.0382
   5 Li_a:3d1+  -2.1481   1.7648  -0.6652   0.2964  -0.0607
   6 Li_a:3d1+   2.0730  -0.8483   0.2170   0.2102  -0.0487
   7 Cl_a:2px   -0.0074  -0.0212  -0.2716   0.0385  -0.0029
   8 Cl_a:2px    0.0621  -0.3167  -1.9951   0.2393  -0.0324
   9 Cl_a:2px    0.3814  -0.2041   2.8892  -0.5334   0.1089
  10 Cl_a:2px    0.0026   0.0022   0.0423  -0.0048  -0.0031
  11 Cl_a:2px   -1.0622  -0.2509  -0.6915  -0.3576   0.0787
  12 Cl_a:3d1+   0.0083   0.0099  -0.0046  -0.0442   0.0011
  13 Cl_a:3d1+   0.1478   0.0840  -0.0854  -1.2948   0.0258
  14 Cl_a:3d1+   0.1756   1.3046  -0.3380   1.2751  -0.1013

 Molecular orbitals for symmetry species 3  (B2 )
 ------------------------------------------------

    Orbital         1        2        3        4        5        6        7
   2 Li_a:2py    0.0003  -0.0787   0.0644   0.1202   1.0982   0.2682   0.7918
   3 Li_a:2py   -0.0002   0.0182  -0.0082   1.3588  -1.3821   0.7614   0.4660
   4 Li_a:2py    0.0000  -0.0047   1.0156  -0.6629   0.3667  -0.0276  -0.0256
   5 Li_a:3d1-   0.0002  -0.0259   0.0070  -0.0135   0.1610  -0.0414  -0.6672
   6 Li_a:3d1-   0.0000   0.0053  -0.0277  -0.0535  -0.7280   0.2891   2.0003
   7 Cl_a:2py   -0.9999   0.0040  -0.0012  -0.0040   0.0003  -0.0187   0.0099
   8 Cl_a:2py    0.0019  -0.9104  -0.0469  -0.1265  -0.1037   0.1988  -0.1383
   9 Cl_a:2py   -0.0008  -0.0341   0.0125   0.0460  -0.0340   0.4356  -0.2842
  11 Cl_a:2py    0.0005  -0.0601  -0.0925  -0.4210   0.5914  -1.8979  -1.1677
  13 Cl_a:3d1-   0.0001   0.0117  -0.0023  -0.0111  -0.0219  -0.0322  -0.0603
  14 Cl_a:3d1-   0.0001   0.0201   0.0042  -0.0015  -0.0338   0.0392  -0.0383

    Orbital         8        9       10       11       12
   1 Li_a:2py   -0.0019  -0.0112   0.0051  -0.0082   1.0150
   2 Li_a:2py    0.1900   0.9752  -0.4996   0.6329  -0.2880
   3 Li_a:2py    0.5480  -0.2362   0.3802   0.0296   0.1000
   4 Li_a:2py   -0.0624   0.0734  -0.0443   0.0114  -0.0382
   5 Li_a:3d1-  -2.1481   1.7648  -0.6652   0.2964  -0.0607
   6 Li_a:3d1-   2.0730  -0.8483   0.2170   0.2102  -0.0487
   7 Cl_a:2py   -0.0074  -0.0212  -0.2716   0.0385  -0.0029
   8 Cl_a:2py    0.0621  -0.3167  -1.9951   0.2393  -0.0324
   9 Cl_a:2py    0.3814  -0.2041   2.8892  -0.5334   0.1089
  10 Cl_a:2py    0.0026   0.0022   0.0423  -0.0048  -0.0031
  11 Cl_a:2py   -1.0622  -0.2509  -0.6915  -0.3576   0.0787
  12 Cl_a:3d1-   0.0083   0.0099  -0.0046  -0.0442   0.0011
  13 Cl_a:3d1-   0.1478   0.0840  -0.0854  -1.2948   0.0258
  14 Cl_a:3d1-   0.1756   1.3046  -0.3380   1.2751  -0.1013

 Molecular orbitals for symmetry species 4  (A2 )
 ------------------------------------------------

    Orbital         1        2        3        4        5
   1 Li_a:3d2-  -0.5232   1.7692  -1.0808   0.0067   0.0001
   2 Li_a:3d2-   1.4335  -1.4854   0.5620  -0.1529   0.0132
   3 Cl_a:3d2-   0.0013   0.0061   0.0091  -0.0437  -1.0021
   4 Cl_a:3d2-   0.0336   0.0775   0.0890  -1.2437   0.1534
   5 Cl_a:3d2-  -0.0156   0.4296   0.8764   0.8821  -0.0775

  Total CPU  time used in SIRIUS :   0.29 seconds
  Total wall time used in SIRIUS :   0.30 seconds

 
     Date and time (Linux)  : Wed Jan 11 14:15:50 2023
     Host name              : cn041                                   


                     .---------------------------------------.
                     | End of Wave Function Section (SIRIUS) |
                     `---------------------------------------'



                 .------------------------------------------------.
                 | Starting in Dynamic Property Section (RESPONS) |
                 `------------------------------------------------'


 ----------------------------------------------------------------------------------------
  RESPONSE  -  an MCSCF, MC-srDFT, DFT, SOPPA and SOPPA-srDFT response property program
 ----------------------------------------------------------------------------------------


 -------- OUTPUT FROM RESPONSE INPUT PROCESSING --------




 Linear Response calculation
 ---------------------------

 Print level                                    : IPRLR  =   2
 Maximum number of iterations                   : MAXITL =  60
 Threshold for relative convergence             : THCLR  = 1.000D-03
 Maximum iterations in optimal orbital algorithm: MAXITO =   5

  9 B-frequencies  0.000000D+00  1.369456D-02  2.738913D-02  4.108369D-02  5.477825D-02
  6.847281D-02  8.216738D-02  9.586194D-02  1.095565D-01

    1 second order properties calculated with symmetry no.    1 and labels:

          ZDIPLEN 

    1 second order properties calculated with symmetry no.    2 and labels:

          XDIPLEN 

    1 second order properties calculated with symmetry no.    3 and labels:

          YDIPLEN 


   SCF energy         :     -467.038044801220906
 -- inactive part     :     -480.394074655875897
 -- nuclear repulsion :       13.356029854654969


                     ***************************************
                     *** RHF response calculation (TDHF) ***
                     ***************************************

 ----------------------------------------------------------------
 ----- Linear response calculation
 ----- Symmetry of excitation/property operator(s)    1  ( A1 )
 ----------------------------------------------------------------

 Number of excitations of this symmetry            0
 Number of response properties of this symmetry    1
 Number of C6/C8 properties of this symmetry       0


 Perturbation symmetry.     KSYMOP:           1
 Perturbation spin symmetry.TRPLET:           F
 Orbital variables.         KZWOPT:         192
 Configuration variables.   KZCONF:           0
 Total number of variables. KZVAR :         192


 RSPLR -- linear response calculation for symmetry 1  ( A1 )
 RSPLR -- operator label : ZDIPLEN 
 RSPLR -- operator spin  :   0
 RSPLR -- frequencies    :     0.000000  0.013695  0.027389  0.041084  0.054778
                               0.068473  0.082167  0.095862  0.109557



 ---  SOLVING SETS OF LINEAR EQUATIONS FOR LINEAR RESPONSE PROPERTIES ---

 Operator symmetry = 1  ( A1 ); triplet =   F


 ** RSPCTL MICROITERATION NUMBER    1

       No.  Residual tot.,    conf., and orb.    Bnorm      Frequency 
      ----------------------------------------------------------------
         1    2.16550D+00  0.00D+00  2.17D+00  4.55D+00    0.00000D+00
         2    2.16729D+00  0.00D+00  2.17D+00  4.56D+00    1.36946D-02
         3    2.17272D+00  0.00D+00  2.17D+00  4.59D+00    2.73891D-02
         4    2.18190D+00  0.00D+00  2.18D+00  4.65D+00    4.10837D-02
         5    2.19503D+00  0.00D+00  2.20D+00  4.73D+00    5.47783D-02
         6    2.21241D+00  0.00D+00  2.21D+00  4.85D+00    6.84728D-02
         7    2.23448D+00  0.00D+00  2.23D+00  4.99D+00    8.21674D-02
         8    2.26183D+00  0.00D+00  2.26D+00  5.17D+00    9.58619D-02
         9    2.29528D+00  0.00D+00  2.30D+00  5.38D+00    1.09557D-01

 ** RSPCTL MICROITERATION NUMBER    2

       No.  Residual tot.,    conf., and orb.    Bnorm      Frequency 
      ----------------------------------------------------------------
         1    3.76539D-01  0.00D+00  3.77D-01  4.84D+00    0.00000D+00
         2    3.77288D-01  0.00D+00  3.77D-01  4.85D+00    1.36946D-02
         3    3.79559D-01  0.00D+00  3.80D-01  4.89D+00    2.73891D-02
         4    3.83422D-01  0.00D+00  3.83D-01  4.96D+00    4.10837D-02
         5    3.88999D-01  0.00D+00  3.89D-01  5.05D+00    5.47783D-02
         6    3.96480D-01  0.00D+00  3.96D-01  5.18D+00    6.84728D-02
         7    4.06133D-01  0.00D+00  4.06D-01  5.34D+00    8.21674D-02
         8    4.18342D-01  0.00D+00  4.18D-01  5.54D+00    9.58619D-02
         9    4.33645D-01  0.00D+00  4.34D-01  5.79D+00    1.09557D-01

 ** RSPCTL MICROITERATION NUMBER    3

       No.  Residual tot.,    conf., and orb.    Bnorm      Frequency 
      ----------------------------------------------------------------
         1    7.47629D-02  0.00D+00  7.48D-02  4.85D+00    0.00000D+00
         2    7.49770D-02  0.00D+00  7.50D-02  4.86D+00    1.36946D-02
         3    7.56263D-02  0.00D+00  7.56D-02  4.90D+00    2.73891D-02
         4    7.67321D-02  0.00D+00  7.67D-02  4.97D+00    4.10837D-02
         5    7.83322D-02  0.00D+00  7.83D-02  5.06D+00    5.47783D-02
         6    8.04837D-02  0.00D+00  8.05D-02  5.19D+00    6.84728D-02
         7    8.32687D-02  0.00D+00  8.33D-02  5.35D+00    8.21674D-02
         8    8.68027D-02  0.00D+00  8.68D-02  5.55D+00    9.58619D-02
         9    9.12484D-02  0.00D+00  9.12D-02  5.80D+00    1.09557D-01

 ** RSPCTL MICROITERATION NUMBER    4

       No.  Residual tot.,    conf., and orb.    Bnorm      Frequency 
      ----------------------------------------------------------------
         1    4.24863D-03  0.00D+00  4.25D-03  4.85D+00    0.00000D+00
         2    4.26321D-03  0.00D+00  4.26D-03  4.86D+00    1.36946D-02
         3    4.30758D-03  0.00D+00  4.31D-03  4.90D+00    2.73891D-02
         4    4.38375D-03  0.00D+00  4.38D-03  4.97D+00    4.10837D-02
         5    4.49529D-03  0.00D+00  4.50D-03  5.06D+00    5.47783D-02
         6    4.64782D-03  0.00D+00  4.65D-03  5.19D+00    6.84728D-02
         7    4.84968D-03  0.00D+00  4.85D-03  5.35D+00    8.21674D-02
         8    5.11319D-03  0.00D+00  5.11D-03  5.55D+00    9.58619D-02
         9    5.45671D-03  0.00D+00  5.46D-03  5.80D+00    1.09557D-01

 *** THE REQUESTED    9 SOLUTION VECTORS CONVERGED

 Convergence of RSP solution vectors, threshold = 1.00D-03
 ---------------------------------------------------------------
 (dimension of paired reduced space:   72)
 RSP solution vector no.    1; norm of residual   8.76D-04
 RSP solution vector no.    2; norm of residual   8.76D-04
 RSP solution vector no.    3; norm of residual   8.79D-04
 RSP solution vector no.    4; norm of residual   8.82D-04
 RSP solution vector no.    5; norm of residual   8.88D-04
 RSP solution vector no.    6; norm of residual   8.96D-04
 RSP solution vector no.    7; norm of residual   9.06D-04
 RSP solution vector no.    8; norm of residual   9.21D-04
 RSP solution vector no.    9; norm of residual   9.40D-04

 *** RSPCTL MICROITERATIONS CONVERGED


           Final output of second order properties from linear response
           ------------------------------------------------------------


@ Spin symmetry of operators: singlet

 Note that minus the linear response function: - << A; B >>(omega) is printed.
 The results are of quadratic accuracy using Sellers formula.

@ FREQUENCY INDEPENDENT SECOND ORDER PROPERTIES

@ -<< ZDIPLEN  ; ZDIPLEN  >> =  2.357140858736E+01

@ FREQUENCY DEPENDENT SECOND ORDER PROPERTIES WITH FREQUENCY :

@    a.u.:  1.3694563D-02
@    cm-1:  3.0056090D+03
@    eV  :  3.7264800D-01
@  kJ/mol:  3.5955068D+01
@    nm  :  3.3271127D+03

@ -<< ZDIPLEN  ; ZDIPLEN  >> =  2.359965390017E+01

@ FREQUENCY DEPENDENT SECOND ORDER PROPERTIES WITH FREQUENCY :

@    a.u.:  2.7389125D-02
@    cm-1:  6.0112181D+03
@    eV  :  7.4529600D-01
@  kJ/mol:  7.1910137D+01
@    nm  :  1.6635564D+03

@ -<< ZDIPLEN  ; ZDIPLEN  >> =  2.368501340657E+01

@ FREQUENCY DEPENDENT SECOND ORDER PROPERTIES WITH FREQUENCY :

@    a.u.:  4.1083688D-02
@    cm-1:  9.0168271D+03
@    eV  :  1.1179440D+00
@  kJ/mol:  1.0786520D+02
@    nm  :  1.1090376D+03

@ -<< ZDIPLEN  ; ZDIPLEN  >> =  2.382940051539E+01

@ FREQUENCY DEPENDENT SECOND ORDER PROPERTIES WITH FREQUENCY :

@    a.u.:  5.4778250D-02
@    cm-1:  1.2022436D+04
@    eV  :  1.4905920D+00
@  kJ/mol:  1.4382027D+02
@    nm  :  8.3177818D+02

@ -<< ZDIPLEN  ; ZDIPLEN  >> =  2.403615280702E+01

@ FREQUENCY DEPENDENT SECOND ORDER PROPERTIES WITH FREQUENCY :

@    a.u.:  6.8472813D-02
@    cm-1:  1.5028045D+04
@    eV  :  1.8632400D+00
@  kJ/mol:  1.7977534D+02
@    nm  :  6.6542254D+02

@ -<< ZDIPLEN  ; ZDIPLEN  >> =  2.431027824128E+01

@ FREQUENCY DEPENDENT SECOND ORDER PROPERTIES WITH FREQUENCY :

@    a.u.:  8.2167375D-02
@    cm-1:  1.8033654D+04
@    eV  :  2.2358880D+00
@  kJ/mol:  2.1573041D+02
@    nm  :  5.5451878D+02

@ -<< ZDIPLEN  ; ZDIPLEN  >> =  2.465885299646E+01

@ FREQUENCY DEPENDENT SECOND ORDER PROPERTIES WITH FREQUENCY :

@    a.u.:  9.5861937D-02
@    cm-1:  2.1039263D+04
@    eV  :  2.6085360D+00
@  kJ/mol:  2.5168548D+02
@    nm  :  4.7530182D+02

@ -<< ZDIPLEN  ; ZDIPLEN  >> =  2.509164191453E+01

@ FREQUENCY DEPENDENT SECOND ORDER PROPERTIES WITH FREQUENCY :

@    a.u.:  1.0955650D-01
@    cm-1:  2.4044872D+04
@    eV  :  2.9811840D+00
@  kJ/mol:  2.8764055D+02
@    nm  :  4.1588909D+02

@ -<< ZDIPLEN  ; ZDIPLEN  >> =  2.562206740451E+01


 Time used in linear response calculation is      0.24 CPU seconds for symmetry 1
 ----------------------------------------------------------------
 ----- Linear response calculation
 ----- Symmetry of excitation/property operator(s)    2  ( B1 )
 ----------------------------------------------------------------

 Number of excitations of this symmetry            0
 Number of response properties of this symmetry    1
 Number of C6/C8 properties of this symmetry       0


 Perturbation symmetry.     KSYMOP:           2
 Perturbation spin symmetry.TRPLET:           F
 Orbital variables.         KZWOPT:         130
 Configuration variables.   KZCONF:           0
 Total number of variables. KZVAR :         130


 RSPLR -- linear response calculation for symmetry 2  ( B1 )
 RSPLR -- operator label : XDIPLEN 
 RSPLR -- operator spin  :   0
 RSPLR -- frequencies    :     0.000000  0.013695  0.027389  0.041084  0.054778
                               0.068473  0.082167  0.095862  0.109557



 ---  SOLVING SETS OF LINEAR EQUATIONS FOR LINEAR RESPONSE PROPERTIES ---

 Operator symmetry = 2  ( B1 ); triplet =   F


 ** RSPCTL MICROITERATION NUMBER    1

       No.  Residual tot.,    conf., and orb.    Bnorm      Frequency 
      ----------------------------------------------------------------
         1    1.47354D+00  0.00D+00  1.47D+00  4.58D+00    0.00000D+00
         2    1.47448D+00  0.00D+00  1.47D+00  4.60D+00    1.36946D-02
         3    1.47731D+00  0.00D+00  1.48D+00  4.63D+00    2.73891D-02
         4    1.48212D+00  0.00D+00  1.48D+00  4.70D+00    4.10837D-02
         5    1.48902D+00  0.00D+00  1.49D+00  4.79D+00    5.47783D-02
         6    1.49823D+00  0.00D+00  1.50D+00  4.92D+00    6.84728D-02
         7    1.51004D+00  0.00D+00  1.51D+00  5.09D+00    8.21674D-02
         8    1.52488D+00  0.00D+00  1.52D+00  5.30D+00    9.58619D-02
         9    1.54342D+00  0.00D+00  1.54D+00  5.57D+00    1.09557D-01

 ** RSPCTL MICROITERATION NUMBER    2

       No.  Residual tot.,    conf., and orb.    Bnorm      Frequency 
      ----------------------------------------------------------------
         1    2.15431D-01  0.00D+00  2.15D-01  4.78D+00    0.00000D+00
         2    2.15551D-01  0.00D+00  2.16D-01  4.79D+00    1.36946D-02
         3    2.15919D-01  0.00D+00  2.16D-01  4.84D+00    2.73891D-02
         4    2.16550D-01  0.00D+00  2.17D-01  4.91D+00    4.10837D-02
         5    2.17475D-01  0.00D+00  2.17D-01  5.02D+00    5.47783D-02
         6    2.18744D-01  0.00D+00  2.19D-01  5.16D+00    6.84728D-02
         7    2.20437D-01  0.00D+00  2.20D-01  5.35D+00    8.21674D-02
         8    2.22686D-01  0.00D+00  2.23D-01  5.60D+00    9.58619D-02
         9    2.25709D-01  0.00D+00  2.26D-01  5.92D+00    1.09557D-01

 ** RSPCTL MICROITERATION NUMBER    3

       No.  Residual tot.,    conf., and orb.    Bnorm      Frequency 
      ----------------------------------------------------------------
         1    1.04208D-02  0.00D+00  1.04D-02  4.78D+00    0.00000D+00
         2    1.04948D-02  0.00D+00  1.05D-02  4.79D+00    1.36946D-02
         3    1.07206D-02  0.00D+00  1.07D-02  4.84D+00    2.73891D-02
         4    1.11095D-02  0.00D+00  1.11D-02  4.91D+00    4.10837D-02
         5    1.16818D-02  0.00D+00  1.17D-02  5.02D+00    5.47783D-02
         6    1.24691D-02  0.00D+00  1.25D-02  5.16D+00    6.84728D-02
         7    1.35186D-02  0.00D+00  1.35D-02  5.36D+00    8.21674D-02
         8    1.49003D-02  0.00D+00  1.49D-02  5.60D+00    9.58619D-02
         9    1.67193D-02  0.00D+00  1.67D-02  5.92D+00    1.09557D-01

 ** RSPCTL MICROITERATION NUMBER    4

       No.  Residual tot.,    conf., and orb.    Bnorm      Frequency 
      ----------------------------------------------------------------
         1    2.05461D-03  0.00D+00  2.05D-03  4.78D+00    0.00000D+00
         2    2.06565D-03  0.00D+00  2.07D-03  4.79D+00    1.36946D-02
         3    2.09927D-03  0.00D+00  2.10D-03  4.84D+00    2.73891D-02
         4    2.15702D-03  0.00D+00  2.16D-03  4.91D+00    4.10837D-02
         5    2.24172D-03  0.00D+00  2.24D-03  5.02D+00    5.47783D-02
         6    2.35774D-03  0.00D+00  2.36D-03  5.16D+00    6.84728D-02
         7    2.51168D-03  0.00D+00  2.51D-03  5.36D+00    8.21674D-02
         8    2.71338D-03  0.00D+00  2.71D-03  5.60D+00    9.58619D-02
         9    2.97782D-03  0.00D+00  2.98D-03  5.92D+00    1.09557D-01

 *** THE REQUESTED    9 SOLUTION VECTORS CONVERGED

 Convergence of RSP solution vectors, threshold = 1.00D-03
 ---------------------------------------------------------------
 (dimension of paired reduced space:   72)
 RSP solution vector no.    1; norm of residual   4.30D-04
 RSP solution vector no.    2; norm of residual   4.31D-04
 RSP solution vector no.    3; norm of residual   4.34D-04
 RSP solution vector no.    4; norm of residual   4.39D-04
 RSP solution vector no.    5; norm of residual   4.47D-04
 RSP solution vector no.    6; norm of residual   4.57D-04
 RSP solution vector no.    7; norm of residual   4.69D-04
 RSP solution vector no.    8; norm of residual   4.84D-04
 RSP solution vector no.    9; norm of residual   5.03D-04

 *** RSPCTL MICROITERATIONS CONVERGED


           Final output of second order properties from linear response
           ------------------------------------------------------------


@ Spin symmetry of operators: singlet

 Note that minus the linear response function: - << A; B >>(omega) is printed.
 The results are of quadratic accuracy using Sellers formula.

@ FREQUENCY INDEPENDENT SECOND ORDER PROPERTIES

@ -<< XDIPLEN  ; XDIPLEN  >> =  2.223956916222E+01

@ FREQUENCY DEPENDENT SECOND ORDER PROPERTIES WITH FREQUENCY :

@    a.u.:  1.3694563D-02
@    cm-1:  3.0056090D+03
@    eV  :  3.7264800D-01
@  kJ/mol:  3.5955068D+01
@    nm  :  3.3271127D+03

@ -<< XDIPLEN  ; XDIPLEN  >> =  2.226739169212E+01

@ FREQUENCY DEPENDENT SECOND ORDER PROPERTIES WITH FREQUENCY :

@    a.u.:  2.7389125D-02
@    cm-1:  6.0112181D+03
@    eV  :  7.4529600D-01
@  kJ/mol:  7.1910137D+01
@    nm  :  1.6635564D+03

@ -<< XDIPLEN  ; XDIPLEN  >> =  2.235163137546E+01

@ FREQUENCY DEPENDENT SECOND ORDER PROPERTIES WITH FREQUENCY :

@    a.u.:  4.1083688D-02
@    cm-1:  9.0168271D+03
@    eV  :  1.1179440D+00
@  kJ/mol:  1.0786520D+02
@    nm  :  1.1090376D+03

@ -<< XDIPLEN  ; XDIPLEN  >> =  2.249467698424E+01

@ FREQUENCY DEPENDENT SECOND ORDER PROPERTIES WITH FREQUENCY :

@    a.u.:  5.4778250D-02
@    cm-1:  1.2022436D+04
@    eV  :  1.4905920D+00
@  kJ/mol:  1.4382027D+02
@    nm  :  8.3177818D+02

@ -<< XDIPLEN  ; XDIPLEN  >> =  2.270076633078E+01

@ FREQUENCY DEPENDENT SECOND ORDER PROPERTIES WITH FREQUENCY :

@    a.u.:  6.8472813D-02
@    cm-1:  1.5028045D+04
@    eV  :  1.8632400D+00
@  kJ/mol:  1.7977534D+02
@    nm  :  6.6542254D+02

@ -<< XDIPLEN  ; XDIPLEN  >> =  2.297642861298E+01

@ FREQUENCY DEPENDENT SECOND ORDER PROPERTIES WITH FREQUENCY :

@    a.u.:  8.2167375D-02
@    cm-1:  1.8033654D+04
@    eV  :  2.2358880D+00
@  kJ/mol:  2.1573041D+02
@    nm  :  5.5451878D+02

@ -<< XDIPLEN  ; XDIPLEN  >> =  2.333124159788E+01

@ FREQUENCY DEPENDENT SECOND ORDER PROPERTIES WITH FREQUENCY :

@    a.u.:  9.5861937D-02
@    cm-1:  2.1039263D+04
@    eV  :  2.6085360D+00
@  kJ/mol:  2.5168548D+02
@    nm  :  4.7530182D+02

@ -<< XDIPLEN  ; XDIPLEN  >> =  2.377910911526E+01

@ FREQUENCY DEPENDENT SECOND ORDER PROPERTIES WITH FREQUENCY :

@    a.u.:  1.0955650D-01
@    cm-1:  2.4044872D+04
@    eV  :  2.9811840D+00
@  kJ/mol:  2.8764055D+02
@    nm  :  4.1588909D+02

@ -<< XDIPLEN  ; XDIPLEN  >> =  2.434047031764E+01


 Time used in linear response calculation is      0.22 CPU seconds for symmetry 2
 ----------------------------------------------------------------
 ----- Linear response calculation
 ----- Symmetry of excitation/property operator(s)    3  ( B2 )
 ----------------------------------------------------------------

 Number of excitations of this symmetry            0
 Number of response properties of this symmetry    1
 Number of C6/C8 properties of this symmetry       0


 Perturbation symmetry.     KSYMOP:           3
 Perturbation spin symmetry.TRPLET:           F
 Orbital variables.         KZWOPT:         130
 Configuration variables.   KZCONF:           0
 Total number of variables. KZVAR :         130


 RSPLR -- linear response calculation for symmetry 3  ( B2 )
 RSPLR -- operator label : YDIPLEN 
 RSPLR -- operator spin  :   0
 RSPLR -- frequencies    :     0.000000  0.013695  0.027389  0.041084  0.054778
                               0.068473  0.082167  0.095862  0.109557



 ---  SOLVING SETS OF LINEAR EQUATIONS FOR LINEAR RESPONSE PROPERTIES ---

 Operator symmetry = 3  ( B2 ); triplet =   F


 ** RSPCTL MICROITERATION NUMBER    1

       No.  Residual tot.,    conf., and orb.    Bnorm      Frequency 
      ----------------------------------------------------------------
         1    1.37576D+00  0.00D+00  1.38D+00  4.60D+00    0.00000D+00
         2    1.37666D+00  0.00D+00  1.38D+00  4.62D+00    1.36946D-02
         3    1.37940D+00  0.00D+00  1.38D+00  4.65D+00    2.73891D-02
         4    1.38406D+00  0.00D+00  1.38D+00  4.72D+00    4.10837D-02
         5    1.39077D+00  0.00D+00  1.39D+00  4.82D+00    5.47783D-02
         6    1.39974D+00  0.00D+00  1.40D+00  4.94D+00    6.84728D-02
         7    1.41131D+00  0.00D+00  1.41D+00  5.11D+00    8.21674D-02
         8    1.42594D+00  0.00D+00  1.43D+00  5.32D+00    9.58619D-02
         9    1.44433D+00  0.00D+00  1.44D+00  5.60D+00    1.09557D-01

 ** RSPCTL MICROITERATION NUMBER    2

       No.  Residual tot.,    conf., and orb.    Bnorm      Frequency 
      ----------------------------------------------------------------
         1    1.83042D-01  0.00D+00  1.83D-01  4.78D+00    0.00000D+00
         2    1.83156D-01  0.00D+00  1.83D-01  4.79D+00    1.36946D-02
         3    1.83503D-01  0.00D+00  1.84D-01  4.84D+00    2.73891D-02
         4    1.84097D-01  0.00D+00  1.84D-01  4.91D+00    4.10837D-02
         5    1.84967D-01  0.00D+00  1.85D-01  5.02D+00    5.47783D-02
         6    1.86156D-01  0.00D+00  1.86D-01  5.16D+00    6.84728D-02
         7    1.87738D-01  0.00D+00  1.88D-01  5.35D+00    8.21674D-02
         8    1.89829D-01  0.00D+00  1.90D-01  5.60D+00    9.58619D-02
         9    1.92628D-01  0.00D+00  1.93D-01  5.92D+00    1.09557D-01

 ** RSPCTL MICROITERATION NUMBER    3

       No.  Residual tot.,    conf., and orb.    Bnorm      Frequency 
      ----------------------------------------------------------------
         1    8.39292D-03  0.00D+00  8.39D-03  4.78D+00    0.00000D+00
         2    8.45415D-03  0.00D+00  8.45D-03  4.79D+00    1.36946D-02
         3    8.64051D-03  0.00D+00  8.64D-03  4.84D+00    2.73891D-02
         4    8.96039D-03  0.00D+00  8.96D-03  4.91D+00    4.10837D-02
         5    9.42894D-03  0.00D+00  9.43D-03  5.02D+00    5.47783D-02
         6    1.00703D-02  0.00D+00  1.01D-02  5.16D+00    6.84728D-02
         7    1.09212D-02  0.00D+00  1.09D-02  5.36D+00    8.21674D-02
         8    1.20381D-02  0.00D+00  1.20D-02  5.60D+00    9.58619D-02
         9    1.35094D-02  0.00D+00  1.35D-02  5.92D+00    1.09557D-01

 ** RSPCTL MICROITERATION NUMBER    4

       No.  Residual tot.,    conf., and orb.    Bnorm      Frequency 
      ----------------------------------------------------------------
         1    1.71192D-03  0.00D+00  1.71D-03  4.78D+00    0.00000D+00
         2    1.72036D-03  0.00D+00  1.72D-03  4.79D+00    1.36946D-02
         3    1.74614D-03  0.00D+00  1.75D-03  4.84D+00    2.73891D-02
         4    1.79061D-03  0.00D+00  1.79D-03  4.91D+00    4.10837D-02
         5    1.85622D-03  0.00D+00  1.86D-03  5.02D+00    5.47783D-02
         6    1.94678D-03  0.00D+00  1.95D-03  5.16D+00    6.84728D-02
         7    2.06793D-03  0.00D+00  2.07D-03  5.36D+00    8.21674D-02
         8    2.22806D-03  0.00D+00  2.23D-03  5.60D+00    9.58619D-02
         9    2.43976D-03  0.00D+00  2.44D-03  5.92D+00    1.09557D-01

 *** THE REQUESTED    9 SOLUTION VECTORS CONVERGED

 Convergence of RSP solution vectors, threshold = 1.00D-03
 ---------------------------------------------------------------
 (dimension of paired reduced space:   72)
 RSP solution vector no.    1; norm of residual   3.58D-04
 RSP solution vector no.    2; norm of residual   3.59D-04
 RSP solution vector no.    3; norm of residual   3.61D-04
 RSP solution vector no.    4; norm of residual   3.65D-04
 RSP solution vector no.    5; norm of residual   3.70D-04
 RSP solution vector no.    6; norm of residual   3.77D-04
 RSP solution vector no.    7; norm of residual   3.86D-04
 RSP solution vector no.    8; norm of residual   3.98D-04
 RSP solution vector no.    9; norm of residual   4.12D-04

 *** RSPCTL MICROITERATIONS CONVERGED


           Final output of second order properties from linear response
           ------------------------------------------------------------


@ Spin symmetry of operators: singlet

 Note that minus the linear response function: - << A; B >>(omega) is printed.
 The results are of quadratic accuracy using Sellers formula.

@ FREQUENCY INDEPENDENT SECOND ORDER PROPERTIES

@ -<< YDIPLEN  ; YDIPLEN  >> =  2.223956928375E+01

@ FREQUENCY DEPENDENT SECOND ORDER PROPERTIES WITH FREQUENCY :

@    a.u.:  1.3694563D-02
@    cm-1:  3.0056090D+03
@    eV  :  3.7264800D-01
@  kJ/mol:  3.5955068D+01
@    nm  :  3.3271127D+03

@ -<< YDIPLEN  ; YDIPLEN  >> =  2.226739181435E+01

@ FREQUENCY DEPENDENT SECOND ORDER PROPERTIES WITH FREQUENCY :

@    a.u.:  2.7389125D-02
@    cm-1:  6.0112181D+03
@    eV  :  7.4529600D-01
@  kJ/mol:  7.1910137D+01
@    nm  :  1.6635564D+03

@ -<< YDIPLEN  ; YDIPLEN  >> =  2.235163149979E+01

@ FREQUENCY DEPENDENT SECOND ORDER PROPERTIES WITH FREQUENCY :

@    a.u.:  4.1083688D-02
@    cm-1:  9.0168271D+03
@    eV  :  1.1179440D+00
@  kJ/mol:  1.0786520D+02
@    nm  :  1.1090376D+03

@ -<< YDIPLEN  ; YDIPLEN  >> =  2.249467711224E+01

@ FREQUENCY DEPENDENT SECOND ORDER PROPERTIES WITH FREQUENCY :

@    a.u.:  5.4778250D-02
@    cm-1:  1.2022436D+04
@    eV  :  1.4905920D+00
@  kJ/mol:  1.4382027D+02
@    nm  :  8.3177818D+02

@ -<< YDIPLEN  ; YDIPLEN  >> =  2.270076646428E+01

@ FREQUENCY DEPENDENT SECOND ORDER PROPERTIES WITH FREQUENCY :

@    a.u.:  6.8472813D-02
@    cm-1:  1.5028045D+04
@    eV  :  1.8632400D+00
@  kJ/mol:  1.7977534D+02
@    nm  :  6.6542254D+02

@ -<< YDIPLEN  ; YDIPLEN  >> =  2.297642875428E+01

@ FREQUENCY DEPENDENT SECOND ORDER PROPERTIES WITH FREQUENCY :

@    a.u.:  8.2167375D-02
@    cm-1:  1.8033654D+04
@    eV  :  2.2358880D+00
@  kJ/mol:  2.1573041D+02
@    nm  :  5.5451878D+02

@ -<< YDIPLEN  ; YDIPLEN  >> =  2.333124175004E+01

@ FREQUENCY DEPENDENT SECOND ORDER PROPERTIES WITH FREQUENCY :

@    a.u.:  9.5861937D-02
@    cm-1:  2.1039263D+04
@    eV  :  2.6085360D+00
@  kJ/mol:  2.5168548D+02
@    nm  :  4.7530182D+02

@ -<< YDIPLEN  ; YDIPLEN  >> =  2.377910928268E+01

@ FREQUENCY DEPENDENT SECOND ORDER PROPERTIES WITH FREQUENCY :

@    a.u.:  1.0955650D-01
@    cm-1:  2.4044872D+04
@    eV  :  2.9811840D+00
@  kJ/mol:  2.8764055D+02
@    nm  :  4.1588909D+02

@ -<< YDIPLEN  ; YDIPLEN  >> =  2.434047050715E+01


 Time used in linear response calculation is      0.20 CPU seconds for symmetry 3

  Total CPU  time used in RESPONSE:   0.66 seconds
  Total wall time used in RESPONSE:   0.68 seconds


                   .-------------------------------------------.
                   | End of Dynamic Property Section (RESPONS) |
                   `-------------------------------------------'

  Total CPU  time used in DALTON:   1.07 seconds
  Total wall time used in DALTON:   1.12 seconds

 
     Date and time (Linux)  : Wed Jan 11 14:15:51 2023
     Host name              : cn041                                   
