

     ************************************************************************
     *************** Dalton - An Electronic Structure Program ***************
     ************************************************************************

    This is output from DALTON release Dalton2020.0 (2020)
         ( Web site: http://daltonprogram.org )

   ----------------------------------------------------------------------------

    NOTE:
     
    Dalton is an experimental code for the evaluation of molecular
    properties using (MC)SCF, DFT, CI, and CC wave functions.
    The authors accept no responsibility for the performance of
    the code or for the correctness of the results.
     
    The code (in whole or part) is provided under a licence and
    is not to be reproduced for further distribution without
    the written permission of the authors or their representatives.
     
    See the home page "http://daltonprogram.org" for further information.
     
    If results obtained with this code are published,
    the appropriate citations would be both of:
     
       K. Aidas, C. Angeli, K. L. Bak, V. Bakken, R. Bast,
       L. Boman, O. Christiansen, R. Cimiraglia, S. Coriani,
       P. Dahle, E. K. Dalskov, U. Ekstroem,
       T. Enevoldsen, J. J. Eriksen, P. Ettenhuber, B. Fernandez,
       L. Ferrighi, H. Fliegl, L. Frediani, K. Hald, A. Halkier,
       C. Haettig, H. Heiberg, T. Helgaker, A. C. Hennum,
       H. Hettema, E. Hjertenaes, S. Hoest, I.-M. Hoeyvik,
       M. F. Iozzi, B. Jansik, H. J. Aa. Jensen, D. Jonsson,
       P. Joergensen, J. Kauczor, S. Kirpekar,
       T. Kjaergaard, W. Klopper, S. Knecht, R. Kobayashi, H. Koch,
       J. Kongsted, A. Krapp, K. Kristensen, A. Ligabue,
       O. B. Lutnaes, J. I. Melo, K. V. Mikkelsen, R. H. Myhre,
       C. Neiss, C. B. Nielsen, P. Norman, J. Olsen,
       J. M. H. Olsen, A. Osted, M. J. Packer, F. Pawlowski,
       T. B. Pedersen, P. F. Provasi, S. Reine, Z. Rinkevicius,
       T. A. Ruden, K. Ruud, V. Rybkin, P. Salek, C. C. M. Samson,
       A. Sanchez de Meras, T. Saue, S. P. A. Sauer,
       B. Schimmelpfennig, K. Sneskov, A. H. Steindal,
       K. O. Sylvester-Hvid, P. R. Taylor, A. M. Teale,
       E. I. Tellgren, D. P. Tew, A. J. Thorvaldsen, L. Thoegersen,
       O. Vahtras, M. A. Watson, D. J. D. Wilson, M. Ziolkowski
       and H. Agren,
       "The Dalton quantum chemistry program system",
       WIREs Comput. Mol. Sci. 2014, 4:269–284 (doi: 10.1002/wcms.1172)
     
    and
     
       Dalton, a molecular electronic structure program,
       Release Dalton2020.0 (2020), see http://daltonprogram.org
   ----------------------------------------------------------------------------

    Authors in alphabetical order (Major contribution(s) in parenthesis):

  Kestutis Aidas,           Vilnius University,           Lithuania   (QM/MM)
  Celestino Angeli,         University of Ferrara,        Italy       (NEVPT2)
  Keld L. Bak,              UNI-C,                        Denmark     (AOSOPPA, non-adiabatic coupling, magnetic properties)
  Vebjoern Bakken,          University of Oslo,           Norway      (DALTON; geometry optimizer, symmetry detection)
  Radovan Bast,             UiT The Arctic U. of Norway,  Norway      (DALTON installation and execution frameworks)
  Pablo Baudin,             University of Valencia,       Spain       (Cholesky excitation energies)
  Linus Boman,              NTNU,                         Norway      (Cholesky decomposition and subsystems)
  Bruno N. Cabral Tenorio,  Technical Univ. of Denmark,   Denmark     (Lanczos-based CC methods)
  Ove Christiansen,         Aarhus University,            Denmark     (CC module)
  Renzo Cimiraglia,         University of Ferrara,        Italy       (NEVPT2)
  Sonia Coriani,            Technical Univ. of Denmark,   Denmark     (CC and RESPONS modules)
  Janusz Cukras,            University of Warsaw,         Poland      (MChD in RESPONS)
  Paal Dahle,               University of Oslo,           Norway      (Parallelization)
  Erik K. Dalskov,          UNI-C,                        Denmark     (SOPPA)
  Thomas Enevoldsen,        Univ. of Southern Denmark,    Denmark     (SOPPA)
  Janus J. Eriksen,         Aarhus University,            Denmark     (Polarizable embedding, TDA)
  Rasmus Faber,             Technical Univ. of Denmark,   Denmark     (Vib.avg. NMR w. SOPPA, parallel AO-SOPPA, CVS-CC and EOMCC)
  Tobias Fahleson,          KTH Stockholm,                Sweden      (Damped cubic response)
  Berta Fernandez,          U. of Santiago de Compostela, Spain       (Doublet spin, ESR in RESPONS)
  Lara Ferrighi,            Aarhus University,            Denmark     (PCM Cubic response)
  Heike Fliegl,             University of Oslo,           Norway      (CCSD(R12))
  Luca Frediani,            UiT The Arctic U. of Norway,  Norway      (PCM)
  Emmanuel Fromager,        Univ. Strasbourg,             France      (MC-srDFT)
  Bin Gao,                  UiT The Arctic U. of Norway,  Norway      (Gen1Int library)
  Andre S. P. Gomes,        CNRS/Universite de Lille,     France      (Frozen density embedding)
  Christof Haettig,         Ruhr-University Bochum,       Germany     (CC module)
  Kasper Hald,              Aarhus University,            Denmark     (CC module)
  Asger Halkier,            Aarhus University,            Denmark     (CC module)
  Frederik Beyer Hansen,    University of Copenhagen,     Denmark     (Parallel AO-SOPPA)
  Erik D. Hedegaard,        Univ. of Southern Denmark,    Denmark     (Polarizable embedding, QM/MM, and MC-srDFT)
  Hanne Heiberg,            University of Oslo,           Norway      (Geometry analysis, selected one-electron integrals)
  Trygve Helgaker,          University of Oslo,           Norway      (DALTON; ABACUS, ERI, DFT modules, London, and much more)
  Alf Christian Hennum,     University of Oslo,           Norway      (Parity violation)
  Hinne Hettema,            University of Auckland,       New Zealand (Quadratic response in RESPONS; SIRIUS supersymmetry)
  Eirik Hjertenaes,         NTNU,                         Norway      (Cholesky decomposition)
  Pi A. B. Haase,           University of Copenhagen,     Denmark     (Triplet AO-SOPPA)
  Maria Francesca Iozzi,    University of Oslo,           Norway      (RPA)
  Christoph Jacob           TU Braunschweig               Germany     (Frozen density embedding)
  Brano Jansik              Technical Univ. of Ostrava    Czech Rep.  (DFT cubic response)
  Hans Joergen Aa. Jensen,  Univ. of Southern Denmark,    Denmark     (DALTON; SIRIUS, RESPONS, ABACUS, MC-srDFT, and much more)
  Dan Jonsson,              UiT The Arctic U. of Norway,  Norway      (Cubic response in RESPONS module)
  Poul Joergensen,          Aarhus University,            Denmark     (RESPONS, ABACUS, and CC modules)
  Maciej Kaminski,          University of Warsaw,         Poland      (CPPh in RESPONS)
  Joanna Kauczor,           Linkoeping University,        Sweden      (Complex polarization propagator (CPP) module)
  Sheela Kirpekar,          Univ. of Southern Denmark,    Denmark     (Mass-velocity & Darwin integrals)
  Erik Kjellgren,           Univ. of Southern Denmark,    Denmark     (MC-srDFT)
  Wim Klopper,              KIT Karlsruhe,                Germany     (R12 code in CC, SIRIUS, and ABACUS modules)
  Stefan Knecht,            ETH Zurich,                   Switzerland (Parallel CI and MCSCF, MC-srDFT)
  Rika Kobayashi,           Australian National Univ.,    Australia   (DIIS in CC, London in MCSCF)
  Henrik Koch,              NTNU,                         Norway      (CC module, Cholesky decomposition)
  Jacob Kongsted,           Univ. of Southern Denmark,    Denmark     (Polarizable embedding, polarizable density embedding, QM/MM)
  Andrea Ligabue,           University of Modena,         Italy       (CTOCD, AOSOPPA)
  Nanna H. List             Univ. of Southern Denmark,    Denmark     (Polarizable embedding)
  Ola B. Lutnaes,           University of Oslo,           Norway      (DFT Hessian)
  Juan I. Melo,             University of Buenos Aires,   Argentina   (LRESC, Relativistic Effects on NMR Shieldings)
  Kurt V. Mikkelsen,        University of Copenhagen,     Denmark     (MC-SCRF and QM/MM)
  Rolf H. Myhre,            NTNU,                         Norway      (Subsystems and CC3)
  Christian Neiss,          Univ. Erlangen-Nuernberg,     Germany     (CCSD(R12))
  Christian B. Nielsen,     University of Copenhagen,     Denmark     (QM/MM)
  Patrick Norman,           KTH Stockholm,                Sweden      (Cubic response and complex frequency response in RESPONS)
  Jeppe Olsen,              Aarhus University,            Denmark     (SIRIUS CI/density modules)
  Jogvan Magnus H. Olsen,   Aarhus University,            Denmark     (Polarizable embedding and polarizable density embedding)
  Anders Osted,             Copenhagen University,        Denmark     (QM/MM)
  Martin J. Packer,         University of Sheffield,      UK          (SOPPA)
  Filip Pawlowski,          Kazimierz Wielki University,  Poland      (CC3)
  Morten N. Pedersen,       Univ. of Southern Denmark,    Denmark     (Polarizable embedding)
  Thomas B. Pedersen,       University of Oslo,           Norway      (Cholesky decomposition)
  Patricio F. Provasi,      University of Northeastern,   Argentina   (Analysis of coupling constants in localized orbitals)
  Peter Reinholdt,          Univ. of Southern Denmark,    Denmark     (Polarizable embedding and polarizable density embedding)
  Zilvinas Rinkevicius,     KTH Stockholm,                Sweden      (open-shell DFT, ESR)
  Elias Rudberg,            KTH Stockholm,                Sweden      (DFT grid and basis info)
  Torgeir A. Ruden,         University of Oslo,           Norway      (Numerical derivatives in ABACUS)
  Kenneth Ruud,             UiT The Arctic U. of Norway,  Norway      (DALTON; ABACUS magnetic properties and much more)
  Pawel Salek,              KTH Stockholm,                Sweden      (DALTON; DFT code)
  Claire C. M. Samson       University of Karlsruhe       Germany     (Boys localization, r12 integrals in ERI)
  Alfredo Sanchez de Meras, University of Valencia,       Spain       (CC module, Cholesky decomposition)
  Trond Saue,               Paul Sabatier University,     France      (direct Fock matrix construction)
  Stephan P. A. Sauer,      University of Copenhagen,     Denmark     (SOPPA(CCSD), SOPPA prop., AOSOPPA, vibrational g-factors)
  Bernd Schimmelpfennig,    Forschungszentrum Karlsruhe,  Germany     (AMFI module)
  Anna K. Schnack-Petersen, University of Copenhagen,     Denmark     (RPA(D) and HRPA(D) properties in AOSOPPA)
  Kristian Sneskov,         Aarhus University,            Denmark     (Polarizable embedding, QM/MM)
  Arnfinn H. Steindal,      UiT The Arctic U. of Norway,  Norway      (parallel QM/MM, polarizable embedding)
  Casper Steinmann,         Aalborg University,           Denmark     (QFIT, polarizable embedding)
  K. O. Sylvester-Hvid,     University of Copenhagen,     Denmark     (MC-SCRF)
  Peter R. Taylor,          VLSCI/Univ. of Melbourne,     Australia   (Symmetry handling ABACUS, integral transformation)
  Andrew M. Teale,          University of Nottingham,     England     (DFT-AC, DFT-D)
  David P. Tew,             University of Bristol,        England     (CCSD(R12))
  Julien Toulouse,          Sorbonne Univ.,               France      (MC-srDFT)
  Olav Vahtras,             KTH Stockholm,                Sweden      (Triplet response, spin-orbit, ESR, TDDFT, open-shell DFT)
  Lucas Visscher,           Vrije Universiteit Amsterdam, Netherlands (Frozen density embedding)
  David J. Wilson,          La Trobe University,          Australia   (DFT Hessian and DFT magnetizabilities)
  Hans Agren,               KTH Stockholm,                Sweden      (SIRIUS module, RESPONS, MC-SCRF solvation)
 --------------------------------------------------------------------------------

     Date and time (Linux)  : Wed Jan 11 15:39:26 2023
     Host name              : cn019                                   

 * Work memory size             :    64000000 =  488.28 megabytes.

 * Directories for basis set searches:
   1) /gpfs/projects/rjh/adrian/fd_compare/dalton/hf/LiCl/dipole
   2) /gpfs/projects/rjh/adrian/dalton/build/basis


Compilation information
-----------------------

 Who compiled             | ahurtado
 Host                     | sn-mem
 System                   | Linux-3.10.0-1160.24.1.el7.x86_64
 CMake generator          | Unix Makefiles
 Processor                | x86_64
 64-bit integers          | OFF
 MPI                      | ON
 Fortran compiler         | /gpfs/software/intel/oneAPI/2021_4/mpi/2021.4.0/bi
                          | n/mpif90
 Fortran compiler version | GNU Fortran (GCC) 11.2.0
 C compiler               | /gpfs/software/intel/oneAPI/2021_4/mpi/2021.4.0/bi
                          | n/mpicc
 C compiler version       | gcc (GCC) 11.2.0
 C++ compiler             | /gpfs/software/intel/oneAPI/2021_4/mpi/2021.4.0/bi
                          | n/mpicxx
 C++ compiler version     | unknown
 BLAS                     | /gpfs/software/intel/oneAPI/2021_4/mkl/2021.4.0/li
                          | b/intel64/libmkl_gf_lp64.so;/gpfs/software/intel/o
                          | neAPI/2021_4/mkl/2021.4.0/lib/intel64/libmkl_seque
                          | ntial.so;/gpfs/software/intel/oneAPI/2021_4/mkl/20
                          | 21.4.0/lib/intel64/libmkl_core.so;/usr/lib64/libpt
                          | hread.so;/usr/lib64/libm.so
 LAPACK                   | /gpfs/software/intel/oneAPI/2021_4/mkl/2021.4.0/li
                          | b/intel64/libmkl_lapack95_lp64.a;/gpfs/software/in
                          | tel/oneAPI/2021_4/mkl/2021.4.0/lib/intel64/libmkl_
                          | gf_lp64.so
 Static linking           | OFF
 Last Git revision        | 66052b3af5ea7225e31178bf9a8b031913c72190
 Git branch               | (HEAD detached at Dalton2020.0)
 Configuration time       | 2023-01-11 13:33:37.731835

 * MPI parallel run using 20 processes.


   Content of the .dal input file
 ----------------------------------

**DALTON INPUT
.RUN RESPONSE
.DIRECT
**WAVE FUNCTIONS
.HF
**RESPONSE
*LINEAR
.DIPLEN
.FREQUENCIES
9
0.0 0.0136945625 0.027389125 0.0410836875 0.05477825 0.06847281250000001 0.082167375 0.0958619375 0.
**END OF DALTON INPUT


   Content of the .mol file
 ----------------------------

BASIS
d-aug-cc-pCVQZ
blah
blah
Atomtype=2 Atomic
Charge=3 Atoms=1
Li_a 0.000000000000 0.000000000000 0.000000000000
Charge=17 Atoms=1
Cl_a 0.000000000000 0.000000000000 3.818500000000


       *******************************************************************
       *********** Output from DALTON general input processing ***********
       *******************************************************************

 --------------------------------------------------------------------------------
   Overall default print level:    0
   Print level for DALTON.STAT:    1

    Parallel calculation using MPI
    AO-direct calculation (in sections where implemented)
    HERMIT 1- and 2-electron integral sections will be executed
    "Old" integral transformation used (limited to max 255 basis functions)
    Wave function sections will be executed (SIRIUS module)
    Dynamic molecular response properties section will be executed (RESPONSE module)
 --------------------------------------------------------------------------------


   ****************************************************************************
   *************** Output of molecule and basis set information ***************
   ****************************************************************************


    The two title cards from your ".mol" input:
    ------------------------------------------------------------------------
 1: blah                                                                    
 2: blah                                                                    
    ------------------------------------------------------------------------

  Atomic type no.    1
  --------------------
  Nuclear charge:   3.00000
  Number of symmetry independent centers:    1
  Number of basis sets to read;    2
  Basis set file used for this atomic type with Z =   3 :
     "/gpfs/projects/rjh/adrian/dalton/build/basis/aug-cc-pCVQZ"

  Atomic type no.    2
  --------------------
  Nuclear charge:  17.00000
  Number of symmetry independent centers:    1
  Number of basis sets to read;    2
  Basis set file used for this atomic type with Z =  17 :
     "/gpfs/projects/rjh/adrian/dalton/build/basis/aug-cc-pCVQZ"


                      SYMADD: Requested addition of symmetry
                      --------------------------------------

 Symmetry test threshold:  5.00E-06

@   The molecule is centered at center of mass and rotated
@   so principal axes of inertia are along coordinate axes.

 Symmetry class found: C(oo,v)        

 Symmetry Independent Centres             
 ----------------------------
Cl_a  17 :      0.00000000     0.00000000     0.63810184  Isotope  1
Li_a   3 :      0.00000000     0.00000000    -3.18039816  Isotope  1

 The following symmetry elements were found:   X  Y     


                         SYMGRP: Point group information
                         -------------------------------

@    Full point group is: C(oo,v)        
@    Represented as:      C2v

@  * The irrep name for each symmetry:    1: A1     2: B1     3: B2     4: A2 

   * The point group was generated by:

      Reflection in the yz-plane
      Reflection in the xz-plane

   * Group multiplication table

        |  E   C2z  Oxz  Oyz
   -----+--------------------
     E  |  E   C2z  Oxz  Oyz
    C2z | C2z   E   Oyz  Oxz
    Oxz | Oxz  Oyz   E   C2z
    Oyz | Oyz  Oxz  C2z   E 

   * Character table

        |  E   C2z  Oxz  Oyz
   -----+--------------------
    A1  |   1    1    1    1
    B1  |   1   -1    1   -1
    B2  |   1   -1   -1    1
    A2  |   1    1   -1   -1

   * Direct product table

        | A1   B1   B2   A2 
   -----+--------------------
    A1  | A1   B1   B2   A2 
    B1  | B1   A1   A2   B2 
    B2  | B2   A2   A1   B1 
    A2  | A2   B2   B1   A1 


                                 Isotopic Masses
                                 ---------------

                           Li_a        7.016005
                           Cl_a       34.968853

                       Total mass:    41.984858 amu
                       Natural abundance:  70.087 %

 Center-of-mass coordinates (a.u.):    0.000000    0.000000    0.000000
 Center-of-mass coordinates (Angs):    0.000000    0.000000    0.000000


  Atoms and basis sets
  --------------------

  Number of atom types :    2
  Total number of atoms:    2

  Basis set used is "d-aug-cc-pCVQZ" from the basis set library.

  label    atoms   charge   prim   cont     basis
  ----------------------------------------------------------------------
  Li          1    3.0000   147   134      [17s11p7d5f3g|10s9p7d5f3g]                         
  Cl          1   17.0000   187   159      [21s16p8d6f4g|11s10p8d6f4g]                        
  ----------------------------------------------------------------------
  total:      2   20.0000   334   293
  ----------------------------------------------------------------------
  Spherical harmonic basis used.

  Threshold for neglecting AO integrals:  1.00D-12


  Cartesian Coordinates (a.u.)
  ----------------------------

  Total number of coordinates:    6
  Li_a    :     1  x   0.0000000000    2  y   0.0000000000    3  z  -3.1803981612
  Cl_a    :     4  x   0.0000000000    5  y   0.0000000000    6  z   0.6381018388


  Symmetry Coordinates
  --------------------

  Number of coordinates in each symmetry:     2    2    2    0

  Symmetry  A1  ( 1)

    1   Li_a  z    3
    2   Cl_a  z    6

  Symmetry  B1  ( 2)

    3   Li_a  x    1
    4   Cl_a  x    4

  Symmetry  B2  ( 3)

    5   Li_a  y    2
    6   Cl_a  y    5


   Interatomic separations (in Angstrom):
   --------------------------------------

            Li_a        Cl_a  
            ------      ------
 Li_a  :    0.000000
 Cl_a  :    2.020663    0.000000


  Max    interatomic separation is    2.0207 Angstrom (    3.8185 Bohr)
  between atoms    2 and    1, "Cl_a  " and "Li_a  ".

  Min YX interatomic separation is    2.0207 Angstrom (    3.8185 Bohr)


  Bond distances (Angstrom):
  --------------------------

                  atom 1     atom 2       distance
                  ------     ------       --------
  bond distance:  Cl_a       Li_a         2.020663




 Principal moments of inertia (u*A**2) and principal axes
 --------------------------------------------------------

   IA       0.000000          0.000000    0.000000    1.000000
   IB      23.859781          0.000000    1.000000    0.000000
   IC      23.859781          1.000000    0.000000    0.000000


 Rotational constants
 --------------------

@    The molecule is linear.

               B =        21181.21 MHz     (    0.706529 cm-1)


@  Nuclear repulsion energy :   13.356029854655 Hartree


  Symmetry Orbitals
  -----------------

  Number of orbitals in each symmetry:         113   70   70   40


  Symmetry  A1 ( 1)

    1     Li_a     1s         1
    2     Li_a     1s         2
    3     Li_a     1s         3
    4     Li_a     1s         4
    5     Li_a     1s         5
    6     Li_a     1s         6
    7     Li_a     1s         7
    8     Li_a     1s         8
    9     Li_a     1s         9
   10     Li_a     1s        10
   11     Li_a     2pz       13
   12     Li_a     2pz       16
   13     Li_a     2pz       19
   14     Li_a     2pz       22
   15     Li_a     2pz       25
   16     Li_a     2pz       28
   17     Li_a     2pz       31
   18     Li_a     2pz       34
   19     Li_a     2pz       37
   20     Li_a     3d0       40
   21     Li_a     3d2+      42
   22     Li_a     3d0       45
   23     Li_a     3d2+      47
   24     Li_a     3d0       50
   25     Li_a     3d2+      52
   26     Li_a     3d0       55
   27     Li_a     3d2+      57
   28     Li_a     3d0       60
   29     Li_a     3d2+      62
   30     Li_a     3d0       65
   31     Li_a     3d2+      67
   32     Li_a     3d0       70
   33     Li_a     3d2+      72
   34     Li_a     4f0       76
   35     Li_a     4f2+      78
   36     Li_a     4f0       83
   37     Li_a     4f2+      85
   38     Li_a     4f0       90
   39     Li_a     4f2+      92
   40     Li_a     4f0       97
   41     Li_a     4f2+      99
   42     Li_a     4f0      104
   43     Li_a     4f2+     106
   44     Li_a     5g0      112
   45     Li_a     5g2+     114
   46     Li_a     5g4+     116
   47     Li_a     5g0      121
   48     Li_a     5g2+     123
   49     Li_a     5g4+     125
   50     Li_a     5g0      130
   51     Li_a     5g2+     132
   52     Li_a     5g4+     134
   53     Cl_a     1s       135
   54     Cl_a     1s       136
   55     Cl_a     1s       137
   56     Cl_a     1s       138
   57     Cl_a     1s       139
   58     Cl_a     1s       140
   59     Cl_a     1s       141
   60     Cl_a     1s       142
   61     Cl_a     1s       143
   62     Cl_a     1s       144
   63     Cl_a     1s       145
   64     Cl_a     2pz      148
   65     Cl_a     2pz      151
   66     Cl_a     2pz      154
   67     Cl_a     2pz      157
   68     Cl_a     2pz      160
   69     Cl_a     2pz      163
   70     Cl_a     2pz      166
   71     Cl_a     2pz      169
   72     Cl_a     2pz      172
   73     Cl_a     2pz      175
   74     Cl_a     3d0      178
   75     Cl_a     3d2+     180
   76     Cl_a     3d0      183
   77     Cl_a     3d2+     185
   78     Cl_a     3d0      188
   79     Cl_a     3d2+     190
   80     Cl_a     3d0      193
   81     Cl_a     3d2+     195
   82     Cl_a     3d0      198
   83     Cl_a     3d2+     200
   84     Cl_a     3d0      203
   85     Cl_a     3d2+     205
   86     Cl_a     3d0      208
   87     Cl_a     3d2+     210
   88     Cl_a     3d0      213
   89     Cl_a     3d2+     215
   90     Cl_a     4f0      219
   91     Cl_a     4f2+     221
   92     Cl_a     4f0      226
   93     Cl_a     4f2+     228
   94     Cl_a     4f0      233
   95     Cl_a     4f2+     235
   96     Cl_a     4f0      240
   97     Cl_a     4f2+     242
   98     Cl_a     4f0      247
   99     Cl_a     4f2+     249
  100     Cl_a     4f0      254
  101     Cl_a     4f2+     256
  102     Cl_a     5g0      262
  103     Cl_a     5g2+     264
  104     Cl_a     5g4+     266
  105     Cl_a     5g0      271
  106     Cl_a     5g2+     273
  107     Cl_a     5g4+     275
  108     Cl_a     5g0      280
  109     Cl_a     5g2+     282
  110     Cl_a     5g4+     284
  111     Cl_a     5g0      289
  112     Cl_a     5g2+     291
  113     Cl_a     5g4+     293


  Symmetry  B1 ( 2)

  114     Li_a     2px       11
  115     Li_a     2px       14
  116     Li_a     2px       17
  117     Li_a     2px       20
  118     Li_a     2px       23
  119     Li_a     2px       26
  120     Li_a     2px       29
  121     Li_a     2px       32
  122     Li_a     2px       35
  123     Li_a     3d1+      41
  124     Li_a     3d1+      46
  125     Li_a     3d1+      51
  126     Li_a     3d1+      56
  127     Li_a     3d1+      61
  128     Li_a     3d1+      66
  129     Li_a     3d1+      71
  130     Li_a     4f1+      77
  131     Li_a     4f3+      79
  132     Li_a     4f1+      84
  133     Li_a     4f3+      86
  134     Li_a     4f1+      91
  135     Li_a     4f3+      93
  136     Li_a     4f1+      98
  137     Li_a     4f3+     100
  138     Li_a     4f1+     105
  139     Li_a     4f3+     107
  140     Li_a     5g1+     113
  141     Li_a     5g3+     115
  142     Li_a     5g1+     122
  143     Li_a     5g3+     124
  144     Li_a     5g1+     131
  145     Li_a     5g3+     133
  146     Cl_a     2px      146
  147     Cl_a     2px      149
  148     Cl_a     2px      152
  149     Cl_a     2px      155
  150     Cl_a     2px      158
  151     Cl_a     2px      161
  152     Cl_a     2px      164
  153     Cl_a     2px      167
  154     Cl_a     2px      170
  155     Cl_a     2px      173
  156     Cl_a     3d1+     179
  157     Cl_a     3d1+     184
  158     Cl_a     3d1+     189
  159     Cl_a     3d1+     194
  160     Cl_a     3d1+     199
  161     Cl_a     3d1+     204
  162     Cl_a     3d1+     209
  163     Cl_a     3d1+     214
  164     Cl_a     4f1+     220
  165     Cl_a     4f3+     222
  166     Cl_a     4f1+     227
  167     Cl_a     4f3+     229
  168     Cl_a     4f1+     234
  169     Cl_a     4f3+     236
  170     Cl_a     4f1+     241
  171     Cl_a     4f3+     243
  172     Cl_a     4f1+     248
  173     Cl_a     4f3+     250
  174     Cl_a     4f1+     255
  175     Cl_a     4f3+     257
  176     Cl_a     5g1+     263
  177     Cl_a     5g3+     265
  178     Cl_a     5g1+     272
  179     Cl_a     5g3+     274
  180     Cl_a     5g1+     281
  181     Cl_a     5g3+     283
  182     Cl_a     5g1+     290
  183     Cl_a     5g3+     292


  Symmetry  B2 ( 3)

  184     Li_a     2py       12
  185     Li_a     2py       15
  186     Li_a     2py       18
  187     Li_a     2py       21
  188     Li_a     2py       24
  189     Li_a     2py       27
  190     Li_a     2py       30
  191     Li_a     2py       33
  192     Li_a     2py       36
  193     Li_a     3d1-      39
  194     Li_a     3d1-      44
  195     Li_a     3d1-      49
  196     Li_a     3d1-      54
  197     Li_a     3d1-      59
  198     Li_a     3d1-      64
  199     Li_a     3d1-      69
  200     Li_a     4f3-      73
  201     Li_a     4f1-      75
  202     Li_a     4f3-      80
  203     Li_a     4f1-      82
  204     Li_a     4f3-      87
  205     Li_a     4f1-      89
  206     Li_a     4f3-      94
  207     Li_a     4f1-      96
  208     Li_a     4f3-     101
  209     Li_a     4f1-     103
  210     Li_a     5g3-     109
  211     Li_a     5g1-     111
  212     Li_a     5g3-     118
  213     Li_a     5g1-     120
  214     Li_a     5g3-     127
  215     Li_a     5g1-     129
  216     Cl_a     2py      147
  217     Cl_a     2py      150
  218     Cl_a     2py      153
  219     Cl_a     2py      156
  220     Cl_a     2py      159
  221     Cl_a     2py      162
  222     Cl_a     2py      165
  223     Cl_a     2py      168
  224     Cl_a     2py      171
  225     Cl_a     2py      174
  226     Cl_a     3d1-     177
  227     Cl_a     3d1-     182
  228     Cl_a     3d1-     187
  229     Cl_a     3d1-     192
  230     Cl_a     3d1-     197
  231     Cl_a     3d1-     202
  232     Cl_a     3d1-     207
  233     Cl_a     3d1-     212
  234     Cl_a     4f3-     216
  235     Cl_a     4f1-     218
  236     Cl_a     4f3-     223
  237     Cl_a     4f1-     225
  238     Cl_a     4f3-     230
  239     Cl_a     4f1-     232
  240     Cl_a     4f3-     237
  241     Cl_a     4f1-     239
  242     Cl_a     4f3-     244
  243     Cl_a     4f1-     246
  244     Cl_a     4f3-     251
  245     Cl_a     4f1-     253
  246     Cl_a     5g3-     259
  247     Cl_a     5g1-     261
  248     Cl_a     5g3-     268
  249     Cl_a     5g1-     270
  250     Cl_a     5g3-     277
  251     Cl_a     5g1-     279
  252     Cl_a     5g3-     286
  253     Cl_a     5g1-     288


  Symmetry  A2 ( 4)

  254     Li_a     3d2-      38
  255     Li_a     3d2-      43
  256     Li_a     3d2-      48
  257     Li_a     3d2-      53
  258     Li_a     3d2-      58
  259     Li_a     3d2-      63
  260     Li_a     3d2-      68
  261     Li_a     4f2-      74
  262     Li_a     4f2-      81
  263     Li_a     4f2-      88
  264     Li_a     4f2-      95
  265     Li_a     4f2-     102
  266     Li_a     5g4-     108
  267     Li_a     5g2-     110
  268     Li_a     5g4-     117
  269     Li_a     5g2-     119
  270     Li_a     5g4-     126
  271     Li_a     5g2-     128
  272     Cl_a     3d2-     176
  273     Cl_a     3d2-     181
  274     Cl_a     3d2-     186
  275     Cl_a     3d2-     191
  276     Cl_a     3d2-     196
  277     Cl_a     3d2-     201
  278     Cl_a     3d2-     206
  279     Cl_a     3d2-     211
  280     Cl_a     4f2-     217
  281     Cl_a     4f2-     224
  282     Cl_a     4f2-     231
  283     Cl_a     4f2-     238
  284     Cl_a     4f2-     245
  285     Cl_a     4f2-     252
  286     Cl_a     5g4-     258
  287     Cl_a     5g2-     260
  288     Cl_a     5g4-     267
  289     Cl_a     5g2-     269
  290     Cl_a     5g4-     276
  291     Cl_a     5g2-     278
  292     Cl_a     5g4-     285
  293     Cl_a     5g2-     287

  Symmetries of electric field:  B1 (2)  B2 (3)  A1 (1)

  Symmetries of magnetic field:  B2 (3)  B1 (2)  A2 (4)


                     .---------------------------------------.
                     | Starting in Integral Section (HERMIT) |
                     `---------------------------------------'



 ***************************************************************************************
 ****************** Output from **INTEGRALS input processing (HERMIT) ******************
 ***************************************************************************************


 - Using defaults, no **INTEGRALS input found

 Default print level:        1

 Calculation of one-electron Hamiltonian integrals.

 Center of mass  (bohr):      0.000000000000      0.000000000000      0.000000000000
 Operator center (bohr):      0.000000000000      0.000000000000      0.000000000000
 Gauge origin    (bohr):      0.000000000000      0.000000000000      0.000000000000
 Dipole origin   (bohr):      0.000000000000      0.000000000000      0.000000000000


     ************************************************************************
     ************************** Output from HERINT **************************
     ************************************************************************



                      Nuclear contribution to dipole moments
                      --------------------------------------

                 au               Debye          C m (/(10**-30)

      z      1.30653678         3.32088503        11.07728009


  Time used in ONEDRV     is       0.12 seconds
  Time used in GABGEN     is       1.59 seconds
  Total CPU  time used in HERMIT:   2.11 seconds
  Total wall time used in HERMIT:   2.11 seconds


                        .----------------------------------.
                        | End of Integral Section (HERMIT) |
                        `----------------------------------'



                   .--------------------------------------------.
                   | Starting in Wave Function Section (SIRIUS) |
                   `--------------------------------------------'


 *** Output from Huckel module :

     Using EWMO model:          T
     Using EHT  model:          F
     Number of Huckel orbitals each symmetry:   10    4    4    1

 EWMO - Energy Weighted Maximum Overlap - is a Huckel type method,
        which normally is better than Extended Huckel Theory.
 Reference: Linderberg and Ohrn, Propagators in Quantum Chemistry (Wiley, 1973)

 Huckel EWMO eigenvalues for symmetry :  1
         -104.883964     -10.609452      -8.072241      -2.486708      -1.123908
           -0.513960      -0.171611      -0.085660      -0.055556      -0.054851

 Huckel EWMO eigenvalues for symmetry :  2
           -8.072216      -0.518935      -0.119286      -0.053719

 Huckel EWMO eigenvalues for symmetry :  3
           -8.072216      -0.518935      -0.119286      -0.053719

 Huckel EWMO eigenvalues for symmetry :  4
           -0.055556

 **********************************************************************
 *SIRIUS* a direct, restricted step, second order MCSCF program       *
 **********************************************************************

 
     Date and time (Linux)  : Wed Jan 11 15:39:28 2023
     Host name              : cn019                                   

 Title lines from ".mol" input file:
     blah                                                                    
     blah                                                                    

 Print level on unit LUPRI =   2 is   0
 Print level on unit LUW4  =   2 is   5

@    Restricted, closed shell Hartree-Fock calculation.

@    Time-dependent Hartree-Fock calculation (random phase approximation).
 Fock matrices are calculated directly and in parallel without use of integrals on disk.

 Initial molecular orbitals are obtained according to
 ".MOSTART EWMO  " input option

     Wave function specification
     ============================
@    Wave function type        --- HF ---
@    Number of closed shell electrons          20
@    Number of electrons in active shells       0
@    Total charge of the molecule               0

@    Spin multiplicity and 2 M_S                1         0
@    Total number of symmetries                 4 (point group: C2v)
@    Reference state symmetry                   1 (irrep name : A1 )

     Orbital specifications
     ======================
@    Abelian symmetry species          All |    1    2    3    4
@                                          |  A1   B1   B2   A2 
                                       --- |  ---  ---  ---  ---
@    Total number of orbitals          293 |  113   70   70   40
@    Number of basis functions         293 |  113   70   70   40

      ** Automatic occupation of RHF orbitals **

      -- Initial occupation of symmetries is determined from extended Huckel guess.           
      -- Initial occupation of symmetries is :
@    Occupied SCF orbitals              10 |    6    2    2    0

     Maximum number of Fock   iterations      0
     Maximum number of DIIS   iterations     60
     Maximum number of QC-SCF iterations     60
     Threshold for SCF convergence     1.00D-05

    INFORMATION: Switched to "new" integral transformation (from 1988 ;-) )
    because more than 255 basis functions.


 ***********************************************
 ***** DIIS acceleration of SCF iterations *****
 ***********************************************

 C1-DIIS algorithm; max error vectors =    8

 Automatic occupation of symmetries with  20 electrons.

 Iter     Total energy    Error norm  Delta(E)    SCF occupation
 -----------------------------------------------------------------------------
   1  Screening settings (-IFTHRS, JTDIIS, DIFDEN, times)   -8    1    T  3.17D+00  3.17D+00
@  1  -467.007381884       1.91D+00  -4.67D+02     6   2   2   0
      Virial theorem: -V/T =      1.997054
@    MULPOP   Li_a    0.98; Cl_a   -0.98; 
   1  Level shift: doubly occupied orbital energies shifted by -2.00D-01
 -----------------------------------------------------------------------------
   2  Screening settings (-IFTHRS, JTDIIS, DIFDEN, times)   -8    2    T  3.52D+00  3.52D+00
@  2  -467.050961853       2.55D-01  -4.36D-02     6   2   2   0
      Virial theorem: -V/T =      2.000927
@    MULPOP   Li_a    0.97; Cl_a   -0.97; 
   2  Level shift: doubly occupied orbital energies shifted by -5.00D-02
 -----------------------------------------------------------------------------
   3  Screening settings (-IFTHRS, JTDIIS, DIFDEN, times)   -8    3    T  3.53D+00  3.53D+00
@  3  -467.054865681       7.22D-02  -3.90D-03     6   2   2   0
      Virial theorem: -V/T =      1.999670
@    MULPOP   Li_a    0.98; Cl_a   -0.98; 
   3  Level shift: doubly occupied orbital energies shifted by -2.50D-02
 -----------------------------------------------------------------------------
   4  Screening settings (-IFTHRS, JTDIIS, DIFDEN, times)  -12    4    F  3.63D+00  3.63D+00
@  4  -467.055391689       2.01D-02  -5.26D-04     6   2   2   0
      Virial theorem: -V/T =      2.000015
@    MULPOP   Li_a    0.96; Cl_a   -0.96; 
   4  Level shift: doubly occupied orbital energies shifted by -1.25D-02
 -----------------------------------------------------------------------------
   5  Screening settings (-IFTHRS, JTDIIS, DIFDEN, times)  -12    5    T  3.48D+00  3.48D+00
@  5  -467.055501249       4.57D-03  -1.10D-04     6   2   2   0
      Virial theorem: -V/T =      1.999971
@    MULPOP   Li_a    0.95; Cl_a   -0.95; 
 -----------------------------------------------------------------------------
   6  Screening settings (-IFTHRS, JTDIIS, DIFDEN, times)  -12    6    T  3.45D+00  3.46D+00
@  6  -467.055508242       1.18D-03  -6.99D-06     6   2   2   0
      Virial theorem: -V/T =      1.999979
@    MULPOP   Li_a    0.95; Cl_a   -0.95; 
 -----------------------------------------------------------------------------
   7  Screening settings (-IFTHRS, JTDIIS, DIFDEN, times)  -12    7    T  3.45D+00  3.45D+00
@  7  -467.055508674       2.73D-04  -4.33D-07     6   2   2   0
      Virial theorem: -V/T =      1.999979
@    MULPOP   Li_a    0.95; Cl_a   -0.95; 
 -----------------------------------------------------------------------------
   8  Screening settings (-IFTHRS, JTDIIS, DIFDEN, times)  -12    8    T  3.55D+00  3.55D+00
@  8  -467.055508685       5.46D-05  -1.04D-08     6   2   2   0
      Virial theorem: -V/T =      1.999979
@    MULPOP   Li_a    0.95; Cl_a   -0.95; 
 -----------------------------------------------------------------------------
   9  Screening settings (-IFTHRS, JTDIIS, DIFDEN, times)  -12    9    T  3.53D+00  3.53D+00
@  9  -467.055508685       1.57D-05  -5.27D-10     6   2   2   0
      Virial theorem: -V/T =      1.999979
@    MULPOP   Li_a    0.95; Cl_a   -0.95; 
 -----------------------------------------------------------------------------
  10  Screening settings (-IFTHRS, JTDIIS, DIFDEN, times)  -12   10    T  3.54D+00  3.55D+00
@ 10  -467.055508685       3.31D-06  -2.53D-11     6   2   2   0

@ *** DIIS converged in  10 iterations !
@     Converged SCF energy, gradient:   -467.055508685396    3.31D-06
    - total time used in SIRFCK :              0.00 seconds


 *** SCF orbital energy analysis ***

 Only the 20 lowest virtual orbital energies printed in each symmetry.

 Number of electrons :   20
 Orbital occupations :    6    2    2    0

 Sym       Hartree-Fock orbital energies

1 A1   -104.72894509   -10.45505117    -7.92154420    -2.47874822    -0.97284075
         -0.40803280    -0.01537331     0.00208437     0.00811426     0.01931366
          0.02309260     0.03014942     0.03220176     0.05966741     0.06516956
          0.06685124     0.08590250     0.08927163     0.09842762     0.11611315
          0.15291874     0.16550708     0.18123103     0.18422271     0.20841161
          0.22858197

2 B1     -7.92128753    -0.38010078     0.00518199     0.01773263     0.02929682
          0.05092030     0.06180597     0.08659990     0.09204100     0.11713554
          0.13469247     0.18075180     0.20838974     0.22649714     0.25494834
          0.26644814     0.27608653     0.33282228     0.41331628     0.44805024
          0.55995592     0.57493396

3 B2     -7.92128753    -0.38010078     0.00518199     0.01773263     0.02929682
          0.05092030     0.06180597     0.08659990     0.09204100     0.11713554
          0.13469247     0.18075180     0.20838974     0.22649714     0.25494834
          0.26644814     0.27608653     0.33282228     0.41331628     0.44805024
          0.55995592     0.57493396

4 A2      0.03014942     0.08590250     0.09842762     0.18422271     0.22858197
          0.23522630     0.25155399     0.30433874     0.46598938     0.54990167
          0.61829439     0.61931130     0.65728616     0.82813277     0.91829467
          0.94737894     1.24411159     1.30245606     1.47473363     1.51722719

    E(LUMO) :    -0.01537331 au (symmetry 1)
  - E(HOMO) :    -0.38010078 au (symmetry 3)
  ------------------------------------------
    gap     :     0.36472747 au

 --- Writing SIRIFC interface file

 CPU and wall time for SCF :      35.045      35.084


                       .-----------------------------------.
                       | --- Final results from SIRIUS --- |
                       `-----------------------------------'


@    Spin multiplicity:           1
@    Spatial symmetry:            1 ( irrep  A1  in C2v )
@    Total charge of molecule:    0

@    Final HF energy:            -467.055508685396                 
@    Nuclear repulsion:            13.356029854655
@    Electronic energy:          -480.411538540051

@    Final gradient norm:           0.000003307838

 
     Date and time (Linux)  : Wed Jan 11 15:40:04 2023
     Host name              : cn019                                   

File label for MO orbitals:  11Jan23   FOCKDIIS

 (Only coefficients > 0.0100 are printed.)

 Molecular orbitals for symmetry species 1  (A1 )
 ------------------------------------------------

    Orbital         1        2        3        4        5        6        7
   1 Li_a:1s    -0.0006   0.0000   0.0055  -1.0335  -0.0416  -0.0310  -0.0080
   2 Li_a:1s    -0.0011   0.0001   0.0094  -0.0643   0.0029   0.1005  -0.1227
   3 Li_a:1s     0.0004  -0.0058   0.0065  -0.0151  -0.0177  -0.0238  -0.0915
   4 Li_a:1s     0.0000  -0.0002   0.0028   0.0162   0.0227   0.0723  -0.0634
   5 Li_a:1s     0.0005  -0.0032   0.0022  -0.0082  -0.0006  -0.0240  -0.1010
   8 Li_a:1s    -0.0003  -0.0001   0.0029  -0.0228  -0.0109  -0.0036  -0.0073
   9 Li_a:1s     0.0000  -0.0001   0.0001  -0.0004   0.0001  -0.0016  -0.3699
  10 Li_a:1s    -0.0000   0.0000  -0.0000   0.0000  -0.0000   0.0002  -0.0470
  12 Li_a:2pz   -0.0000   0.0004   0.0002   0.0053   0.0135   0.0433   0.0190
  15 Li_a:2pz    0.0000  -0.0025   0.0052  -0.0046   0.0074   0.0471   0.0702
  16 Li_a:2pz    0.0003  -0.0019   0.0019   0.0007   0.0145   0.0551   0.2496
  17 Li_a:2pz    0.0002  -0.0011   0.0004  -0.0044  -0.0014  -0.0033   0.2975
  18 Li_a:2pz   -0.0000   0.0000   0.0000   0.0003   0.0003   0.0005   0.1245
  19 Li_a:2pz    0.0000  -0.0000  -0.0000  -0.0001  -0.0001  -0.0001   0.0474
  28 Li_a:3d0    0.0001  -0.0010   0.0006   0.0000   0.0080   0.0326   0.0050
  30 Li_a:3d0    0.0001  -0.0006   0.0001  -0.0019   0.0013   0.0114  -0.0033
  32 Li_a:3d0    0.0000  -0.0000   0.0000  -0.0003  -0.0003  -0.0010  -0.0570
  40 Li_a:4f0    0.0001  -0.0005  -0.0000   0.0001   0.0015   0.0109   0.0092
  53 Cl_a:1s     1.0000   0.0000   0.0001   0.0000  -0.0001  -0.0000   0.0000
  54 Cl_a:1s    -0.0001   1.0010   0.0016   0.0003  -0.0030  -0.0023   0.0010
  55 Cl_a:1s    -0.0008   0.0040   0.0010  -0.0061   0.9610  -0.0902   0.0389
  57 Cl_a:1s     0.0012  -0.0073  -0.0001   0.0019  -0.0271  -0.0173  -0.0008
  58 Cl_a:1s    -0.0002   0.0045  -0.0062   0.0042   0.0386  -0.0486  -0.0015
  62 Cl_a:1s    -0.0006   0.0048  -0.0054  -0.0039   0.0124  -0.0082  -0.0963
  63 Cl_a:1s    -0.0003   0.0018  -0.0016   0.0033   0.0004   0.0323  -0.2284
  64 Cl_a:2pz   -0.0002  -0.0008   1.0007  -0.0006   0.0017   0.0031  -0.0006
  65 Cl_a:2pz    0.0001  -0.0006   0.0015   0.0054  -0.0280  -0.9102  -0.0590
  68 Cl_a:2pz    0.0004  -0.0042   0.0030   0.0000  -0.0239  -0.0771  -0.0179
  72 Cl_a:2pz    0.0000  -0.0003   0.0013   0.0055  -0.0030  -0.0535  -0.0024
  73 Cl_a:2pz   -0.0000   0.0001   0.0001   0.0004   0.0003  -0.0032   0.0542
  84 Cl_a:3d0    0.0000   0.0000  -0.0010  -0.0021   0.0093   0.0245   0.0041
  86 Cl_a:3d0   -0.0002   0.0020  -0.0007  -0.0014   0.0132   0.0415   0.0125

    Orbital         8        9       10       11       12       13       14
   1 Li_a:1s    -0.0039  -0.2907  -0.1675   0.2968   0.0000  -0.6151  -0.6657
   2 Li_a:1s    -0.0470  -0.4849  -0.2146   0.5060   0.0000  -1.0736  -1.1941
   3 Li_a:1s    -0.0473  -0.6899  -0.9234  -0.2350   0.0000  -1.5171  -3.7440
   4 Li_a:1s     0.0955  -1.2379   1.3237   4.5170   0.0000  -1.3825  -4.2891
   5 Li_a:1s    -1.5634  -2.5025  -7.6868   5.9414   0.0000  -3.4478 -13.0865
   6 Li_a:1s    -0.0001  -0.0047  -0.0029   0.0047   0.0000  -0.0101  -0.0105
   7 Li_a:1s    -0.0006  -0.0368  -0.0204   0.0378  -0.0000  -0.0777  -0.0858
   8 Li_a:1s    -0.0032  -0.1567  -0.0898   0.1602   0.0000  -0.3336  -0.3534
   9 Li_a:1s    -0.9349  -1.4704  -3.2309   1.6490   0.0000  -3.0816   1.6803
  10 Li_a:1s     1.3075   0.9923   0.9468  -0.6777  -0.0000   0.4510   0.1067
  12 Li_a:2pz    0.0004   0.0106  -0.0606  -0.0641   0.0000   0.0124   0.0082
  14 Li_a:2pz    0.0046  -0.0032   0.0222   0.0291  -0.0000   0.0010   0.0125
  15 Li_a:2pz    0.0274  -0.4676  -0.3761   0.3968  -0.0000  -0.9046  -1.6105
  16 Li_a:2pz   -0.2501  -0.7240  -1.1340   3.0412   0.0000  -0.8948  -0.0400
  17 Li_a:2pz   -0.6533  -0.9304  -4.8773   0.4698  -0.0000  -2.9076   2.8627
  18 Li_a:2pz    0.5304  -1.0403   1.9906   0.4924   0.0000  -4.0073   4.4875
  19 Li_a:2pz   -0.7640   1.2959  -1.0395  -0.6571  -0.0000   1.0338  -0.4700
  24 Li_a:3d0   -0.0033  -0.0009  -0.0116   0.0007   0.0000  -0.0027   0.0049
  26 Li_a:3d0    0.0051  -0.1288  -0.0610   0.0932  -0.0000  -0.2640  -0.4257
  28 Li_a:3d0   -0.1057  -0.0774  -0.2599   0.6400  -0.0000  -0.0519   0.4647
  29 Li_a:3d2+  -0.0000   0.0000  -0.0000   0.0000   0.2102   0.0000   0.0000
  30 Li_a:3d0   -0.2724  -0.0617  -1.1053   0.4367   0.0000  -0.3095   2.3187
  31 Li_a:3d2+  -0.0000   0.0000  -0.0000   0.0000  -0.5643  -0.0000   0.0000
  32 Li_a:3d0    0.0936  -0.5266  -0.4029  -1.2302  -0.0000  -2.3850   2.6842
  33 Li_a:3d2+   0.0000  -0.0000  -0.0000  -0.0000   1.2116   0.0000  -0.0000
  36 Li_a:4f0   -0.0006  -0.0155  -0.0127   0.0136   0.0000  -0.0298  -0.0538
  38 Li_a:4f0   -0.0038  -0.0294  -0.0188   0.0650  -0.0000  -0.0575  -0.0220
  39 Li_a:4f2+  -0.0000   0.0000  -0.0000   0.0000   0.0642  -0.0000   0.0000
  40 Li_a:4f0   -0.0601   0.0452  -0.1584   0.1913  -0.0000   0.1570   0.3287
  41 Li_a:4f2+  -0.0000   0.0000  -0.0000   0.0000   0.0414   0.0000   0.0000
  42 Li_a:4f0   -0.0283  -0.0348  -0.1873  -0.0229   0.0000  -0.2378   0.7787
  43 Li_a:4f2+   0.0000   0.0000  -0.0000   0.0000  -0.2603   0.0000   0.0000
  44 Li_a:5g0    0.0005  -0.0076  -0.0022   0.0082   0.0000  -0.0161  -0.0136
  47 Li_a:5g0   -0.0062   0.0051  -0.0171   0.0146  -0.0000   0.0197   0.0019
  48 Li_a:5g2+  -0.0000   0.0000  -0.0000   0.0000   0.0544  -0.0000   0.0000
  50 Li_a:5g0   -0.0119   0.0063  -0.0410   0.0252   0.0000   0.0157   0.0964
  51 Li_a:5g2+   0.0000   0.0000  -0.0000   0.0000  -0.0521   0.0000   0.0000
  55 Cl_a:1s     0.0191  -0.0087  -0.0004  -0.0291  -0.0000   0.0367   0.0046
  56 Cl_a:1s     0.0029   0.0028   0.0109  -0.0053   0.0000   0.0083   0.0008
  57 Cl_a:1s    -0.0185  -0.0419  -0.0964   0.0549   0.0000  -0.0903  -0.0512
  58 Cl_a:1s     0.0743   0.2122   0.3131  -0.5160   0.0000   0.3981   0.1383
  62 Cl_a:1s     0.5833   1.6999   2.5699  -4.8175  -0.0000   2.8269   2.1612
  63 Cl_a:1s     1.1971   3.6609   8.3893  -5.8871  -0.0000   7.4246   9.5478
  64 Cl_a:2pz   -0.0010  -0.0062  -0.0044   0.0096   0.0000  -0.0134  -0.0038
  65 Cl_a:2pz   -0.0237  -0.0161   0.0224   0.0391   0.0000  -0.0406  -0.0136
  66 Cl_a:2pz    0.0020   0.0148   0.0110  -0.0222  -0.0000   0.0319   0.0126
  67 Cl_a:2pz    0.0018  -0.0215  -0.0009   0.0351  -0.0000  -0.0404  -0.0366
  68 Cl_a:2pz   -0.0417  -0.4952  -0.4680   0.4968   0.0000  -0.9940  -1.6161
  72 Cl_a:2pz    0.1031  -1.1111   0.1221   2.1769   0.0000  -1.4741  -6.5801
  73 Cl_a:2pz   -0.2285   0.2210  -0.6580   2.0237   0.0000   3.4360 -10.6160
  82 Cl_a:3d0   -0.0006  -0.0043  -0.0069   0.0033   0.0000  -0.0085  -0.0139
  84 Cl_a:3d0    0.0048   0.0414   0.0390  -0.0420  -0.0000   0.0859   0.1144
  86 Cl_a:3d0    0.0020   0.1959   0.1995  -0.0215  -0.0000   0.4075   0.9990
  87 Cl_a:3d2+   0.0000  -0.0000   0.0000  -0.0000  -0.1429   0.0000  -0.0000
  88 Cl_a:3d0   -0.0598   0.1382  -0.2483  -0.3704  -0.0000  -0.0268   1.8162
  89 Cl_a:3d2+  -0.0000  -0.0000   0.0000  -0.0000   0.2471  -0.0000  -0.0000
  96 Cl_a:4f0   -0.0008  -0.0023  -0.0035   0.0036   0.0000  -0.0012  -0.0243
  98 Cl_a:4f0   -0.0014  -0.0080  -0.0086  -0.0008   0.0000  -0.0311   0.0303
 100 Cl_a:4f0   -0.0058  -0.0309  -0.0664  -0.0116  -0.0000  -0.0398  -0.3297
 101 Cl_a:4f2+  -0.0000   0.0000  -0.0000   0.0000   0.0777  -0.0000   0.0000
 111 Cl_a:5g0    0.0029   0.0018   0.0160   0.0043   0.0000   0.0027   0.0294
 112 Cl_a:5g2+   0.0000  -0.0000   0.0000  -0.0000  -0.0215   0.0000  -0.0000

    Orbital        15       16
   1 Li_a:1s     0.0451  -0.8394
   2 Li_a:1s    -0.0133  -1.4943
   3 Li_a:1s    -2.3841  -0.5257
   4 Li_a:1s    11.3866  -6.5726
   5 Li_a:1s    -7.4011 -22.9335
   6 Li_a:1s    -0.0002  -0.0139
   7 Li_a:1s     0.0077  -0.1060
   8 Li_a:1s     0.0178  -0.4548
   9 Li_a:1s    -2.2452  -4.1272
  10 Li_a:1s     0.2452   0.7088
  12 Li_a:2pz   -0.1936   0.0717
  13 Li_a:2pz    0.0188  -0.0047
  14 Li_a:2pz    0.1008  -0.0171
  15 Li_a:2pz    0.1216  -1.0535
  16 Li_a:2pz    3.3134  -7.9321
  17 Li_a:2pz  -10.2244  -9.1803
  18 Li_a:2pz    1.1186  -0.8634
  19 Li_a:2pz   -0.6653   0.1942
  24 Li_a:3d0   -0.0240  -0.0299
  26 Li_a:3d0    0.0559  -0.2621
  28 Li_a:3d0    0.4820  -1.9425
  30 Li_a:3d0   -1.9646  -3.7253
  32 Li_a:3d0   -1.6929  -0.3361
  36 Li_a:4f0   -0.0010  -0.0425
  38 Li_a:4f0    0.0620  -0.1646
  40 Li_a:4f0   -0.0686  -0.6797
  42 Li_a:4f0   -0.8437  -0.3969
  44 Li_a:5g0    0.0086  -0.0196
  47 Li_a:5g0   -0.0072  -0.0526
  50 Li_a:5g0   -0.0773  -0.1319
  54 Cl_a:1s     0.0162   0.0215
  55 Cl_a:1s     0.1013   0.0034
  56 Cl_a:1s     0.0189   0.0292
  57 Cl_a:1s    -0.1093  -0.2872
  58 Cl_a:1s    -0.1522   1.5848
  62 Cl_a:1s    -2.4931  14.3176
  63 Cl_a:1s     6.7830  23.1829
  64 Cl_a:2pz    0.0046  -0.0296
  65 Cl_a:2pz   -0.0477  -0.1286
  66 Cl_a:2pz   -0.0109   0.0676
  67 Cl_a:2pz    0.0599  -0.0676
  68 Cl_a:2pz   -0.1288  -1.6413
  72 Cl_a:2pz    5.0652  -2.9903
  73 Cl_a:2pz    3.2035  -0.1841
  82 Cl_a:3d0   -0.0065  -0.0174
  84 Cl_a:3d0    0.0225   0.1398
  86 Cl_a:3d0    0.3276   0.2309
  88 Cl_a:3d0   -1.4227  -0.2019
  98 Cl_a:4f0   -0.0266  -0.0368
 100 Cl_a:4f0   -0.1418  -0.0039
 111 Cl_a:5g0    0.0411   0.0111

 Molecular orbitals for symmetry species 2  (B1 )
 ------------------------------------------------

    Orbital         1        2        3        4        5        6        7
   2 Li_a:2px    0.0000  -0.0260   0.0011   0.0289   0.0085  -0.0173  -0.0437
   4 Li_a:2px   -0.0000   0.0026  -0.0021  -0.0100  -0.0056   0.0243   0.0272
   5 Li_a:2px    0.0001  -0.0275  -0.0424  -0.0858  -0.0164   0.2440   0.4929
   6 Li_a:2px   -0.0005   0.0312  -0.2222  -0.0381   0.1117  -0.9018   4.2002
   7 Li_a:2px   -0.0002   0.0153   0.0830  -0.4298  -2.4441   0.1026  10.0757
   8 Li_a:2px   -0.0000  -0.0006   0.9123   2.1354  -3.4852  -3.1795   3.6356
   9 Li_a:2px   -0.0000   0.0003  -1.3471  -1.3569   0.8283   0.9422  -0.3161
  13 Li_a:3d1+   0.0002  -0.0082  -0.0151  -0.0226   0.0349  -0.0089   0.1360
  14 Li_a:3d1+  -0.0002   0.0166  -0.0841  -0.1324   0.0635  -0.1459   1.3060
  15 Li_a:3d1+  -0.0002   0.0159  -0.0804  -0.1069  -0.1469  -1.1182   3.6527
  16 Li_a:3d1+  -0.0000   0.0004   0.4939  -0.2735  -2.6076  -0.2571   3.0685
  19 Li_a:4f1+   0.0001  -0.0044  -0.0036  -0.0061   0.0128   0.0129  -0.0097
  21 Li_a:4f1+   0.0001   0.0016  -0.0103  -0.0016   0.0123  -0.0430   0.1715
  23 Li_a:4f1+  -0.0001   0.0084  -0.0631  -0.0473   0.1391  -0.0566   0.4887
  25 Li_a:4f1+  -0.0000   0.0032   0.0299   0.0419  -0.2326  -0.2010   0.9710
  29 Li_a:5g1+   0.0000   0.0003  -0.0094  -0.0004   0.0278  -0.0240   0.0478
  31 Li_a:5g1+  -0.0000   0.0025  -0.0061  -0.0041   0.0074  -0.0161   0.1040
  33 Cl_a:2px   -1.0000   0.0025  -0.0019  -0.0018   0.0023  -0.0065   0.0276
  34 Cl_a:2px    0.0014  -0.9173   0.0115  -0.0490   0.0306  -0.1222   0.0968
  35 Cl_a:2px    0.0002   0.0036   0.0043   0.0034  -0.0045   0.0117  -0.0592
  36 Cl_a:2px   -0.0003  -0.0002  -0.0025  -0.0044   0.0023   0.0052   0.0236
  37 Cl_a:2px    0.0001  -0.0820   0.1068   0.0791  -0.1863   0.0940  -0.9836
  41 Cl_a:2px    0.0005  -0.0704   0.2702   0.3200   0.2559   0.9193  -6.9781
  42 Cl_a:2px    0.0001  -0.0050  -0.7435  -0.3128   5.0333   2.7477 -11.7600
  48 Cl_a:3d1+   0.0003   0.0156  -0.0055  -0.0048   0.0201  -0.0133   0.0157
  49 Cl_a:3d1+  -0.0001   0.0247  -0.0526  -0.0862   0.0372   0.0179   0.7111
  50 Cl_a:3d1+  -0.0001   0.0073  -0.0348  -0.0555  -0.2265  -0.3550   1.9799
  57 Cl_a:4f1+  -0.0000  -0.0036  -0.0010  -0.0000   0.0060   0.0025  -0.0111
  59 Cl_a:4f1+  -0.0001  -0.0026   0.0073   0.0044  -0.0320  -0.0084   0.0261
  61 Cl_a:4f1+   0.0001  -0.0042   0.0030   0.0285   0.0485  -0.0275  -0.2433
  69 Cl_a:5g1+  -0.0000   0.0002  -0.0007  -0.0083  -0.0065   0.0188   0.0224

    Orbital         8        9       10       11       12
   2 Li_a:2px   -0.0092  -0.0000  -0.1812  -0.1627   0.0827
   3 Li_a:2px    0.0004  -0.0000   0.0138   0.0063  -0.0077
   4 Li_a:2px    0.0015   0.0000   0.0674   0.0576  -0.0353
   5 Li_a:2px   -0.1291  -0.0000   1.8070  -0.1456  -1.2633
   6 Li_a:2px    2.7631  -0.0000   7.7965  -3.8339   2.5834
   7 Li_a:2px    0.4015  -0.0000  13.8350  -0.7367   0.9386
   8 Li_a:2px   -2.0455   0.0000   1.8890  -1.6467   1.3273
   9 Li_a:2px    0.4497  -0.0000  -0.0134   0.4270  -0.2105
  12 Li_a:3d1+   0.0022   0.0000  -0.0188   0.0391  -0.0116
  13 Li_a:3d1+  -0.0489  -0.0000   0.8444  -0.2840  -0.6730
  14 Li_a:3d1+   0.8706  -0.0000   2.9989  -0.3661  -0.1506
  15 Li_a:3d1+   1.7162  -0.0000   7.9414  -3.0470  -0.9206
  16 Li_a:3d1+  -1.5006  -0.0000   2.4250  -0.0321   0.5782
  19 Li_a:4f1+   0.0042  -0.0000   0.0622  -0.0077  -0.1504
  20 Li_a:4f3+  -0.0000  -0.0446   0.0000   0.0000   0.0000
  21 Li_a:4f1+   0.0221  -0.0000   0.5419  -0.2322  -0.1214
  22 Li_a:4f3+   0.0000   0.1449  -0.0000  -0.0000  -0.0000
  23 Li_a:4f1+   0.7013  -0.0000   1.0008  -0.2838  -0.2906
  24 Li_a:4f3+  -0.0000  -0.4074  -0.0000   0.0000   0.0000
  25 Li_a:4f1+  -1.0884  -0.0000   3.1604  -1.0564  -1.0328
  26 Li_a:4f3+   0.0000   1.2118   0.0000  -0.0000  -0.0000
  27 Li_a:5g1+  -0.0134  -0.0000   0.0635  -0.0269  -0.0752
  29 Li_a:5g1+   0.1204   0.0000   0.0615  -0.0680   0.0800
  30 Li_a:5g3+   0.0000   0.0173  -0.0000   0.0000  -0.0000
  31 Li_a:5g1+   0.0251  -0.0000   0.3460  -0.1378  -0.4233
  32 Li_a:5g3+  -0.0000  -0.0915  -0.0000  -0.0000   0.0000
  33 Cl_a:2px    0.0270   0.0000   0.0355  -0.0074   0.0239
  34 Cl_a:2px    0.0522   0.0000   0.1114   0.1494   0.0191
  35 Cl_a:2px   -0.0585  -0.0000  -0.0770   0.0191  -0.0531
  36 Cl_a:2px    0.0148  -0.0000   0.0718  -0.0049  -0.0366
  37 Cl_a:2px   -0.7503   0.0000  -2.8526   0.9880   1.0238
  41 Cl_a:2px   -3.1243   0.0000 -15.0978   3.8407   0.0923
  42 Cl_a:2px    2.3675   0.0000 -10.5775   1.9463  -3.0433
  46 Cl_a:3d1+   0.0013  -0.0000   0.0100   0.0025   0.0005
  47 Cl_a:3d1+  -0.0037   0.0000  -0.0229   0.0283   0.0360
  48 Cl_a:3d1+   0.0105  -0.0000   0.1907  -0.0760  -0.1608
  49 Cl_a:3d1+   0.1573  -0.0000   2.3890  -0.4729  -1.0665
  50 Cl_a:3d1+   1.2631  -0.0000   2.0868  -0.0752   3.7393
  57 Cl_a:4f1+  -0.0013   0.0000   0.0064  -0.0131  -0.0498
  59 Cl_a:4f1+   0.0015   0.0000  -0.1555   0.0904   0.3271
  60 Cl_a:4f3+  -0.0000  -0.0213  -0.0000   0.0000  -0.0000
  61 Cl_a:4f1+   0.0473   0.0000  -0.6116  -0.0202   0.0151
  62 Cl_a:4f3+   0.0000   0.0335   0.0000   0.0000   0.0000
  67 Cl_a:5g1+   0.0094  -0.0000   0.0036  -0.0134  -0.0203
  69 Cl_a:5g1+  -0.0314  -0.0000   0.1213   0.0149  -0.0972

 Molecular orbitals for symmetry species 3  (B2 )
 ------------------------------------------------

    Orbital         1        2        3        4        5        6        7
   2 Li_a:2py    0.0000  -0.0260   0.0011   0.0289   0.0085  -0.0173  -0.0437
   4 Li_a:2py   -0.0000   0.0026  -0.0021  -0.0100  -0.0056   0.0243   0.0272
   5 Li_a:2py    0.0001  -0.0275  -0.0424  -0.0858  -0.0164   0.2440   0.4929
   6 Li_a:2py   -0.0005   0.0312  -0.2222  -0.0381   0.1117  -0.9018   4.2002
   7 Li_a:2py   -0.0002   0.0153   0.0830  -0.4298  -2.4441   0.1026  10.0757
   8 Li_a:2py   -0.0000  -0.0006   0.9123   2.1354  -3.4852  -3.1795   3.6356
   9 Li_a:2py   -0.0000   0.0003  -1.3471  -1.3569   0.8283   0.9422  -0.3161
  13 Li_a:3d1-   0.0002  -0.0082  -0.0151  -0.0226   0.0349  -0.0089   0.1360
  14 Li_a:3d1-  -0.0002   0.0166  -0.0841  -0.1324   0.0635  -0.1459   1.3060
  15 Li_a:3d1-  -0.0002   0.0159  -0.0804  -0.1069  -0.1469  -1.1182   3.6527
  16 Li_a:3d1-  -0.0000   0.0004   0.4939  -0.2735  -2.6076  -0.2571   3.0685
  20 Li_a:4f1-   0.0001  -0.0044  -0.0036  -0.0061   0.0128   0.0129  -0.0097
  22 Li_a:4f1-   0.0001   0.0016  -0.0103  -0.0016   0.0123  -0.0430   0.1715
  24 Li_a:4f1-  -0.0001   0.0084  -0.0631  -0.0473   0.1391  -0.0566   0.4887
  26 Li_a:4f1-  -0.0000   0.0032   0.0299   0.0419  -0.2326  -0.2010   0.9710
  30 Li_a:5g1-   0.0000   0.0003  -0.0094  -0.0004   0.0278  -0.0240   0.0478
  32 Li_a:5g1-  -0.0000   0.0025  -0.0061  -0.0041   0.0074  -0.0161   0.1040
  33 Cl_a:2py   -1.0000   0.0025  -0.0019  -0.0018   0.0023  -0.0065   0.0276
  34 Cl_a:2py    0.0014  -0.9173   0.0115  -0.0490   0.0306  -0.1222   0.0968
  35 Cl_a:2py    0.0002   0.0036   0.0043   0.0034  -0.0045   0.0117  -0.0592
  36 Cl_a:2py   -0.0003  -0.0002  -0.0025  -0.0044   0.0023   0.0052   0.0236
  37 Cl_a:2py    0.0001  -0.0820   0.1068   0.0791  -0.1863   0.0940  -0.9836
  41 Cl_a:2py    0.0005  -0.0704   0.2702   0.3200   0.2559   0.9193  -6.9781
  42 Cl_a:2py    0.0001  -0.0050  -0.7435  -0.3128   5.0333   2.7477 -11.7600
  48 Cl_a:3d1-   0.0003   0.0156  -0.0055  -0.0048   0.0201  -0.0133   0.0157
  49 Cl_a:3d1-  -0.0001   0.0247  -0.0526  -0.0862   0.0372   0.0179   0.7111
  50 Cl_a:3d1-  -0.0001   0.0073  -0.0348  -0.0555  -0.2265  -0.3550   1.9799
  58 Cl_a:4f1-  -0.0000  -0.0036  -0.0010  -0.0000   0.0060   0.0025  -0.0111
  60 Cl_a:4f1-  -0.0001  -0.0026   0.0073   0.0044  -0.0320  -0.0084   0.0261
  62 Cl_a:4f1-   0.0001  -0.0042   0.0030   0.0285   0.0485  -0.0275  -0.2433
  70 Cl_a:5g1-  -0.0000   0.0002  -0.0007  -0.0083  -0.0065   0.0188   0.0224

    Orbital         8        9       10       11       12
   2 Li_a:2py   -0.0092   0.0000  -0.1812  -0.1627   0.0827
   3 Li_a:2py    0.0004   0.0000   0.0138   0.0063  -0.0077
   4 Li_a:2py    0.0015  -0.0000   0.0674   0.0576  -0.0353
   5 Li_a:2py   -0.1291   0.0000   1.8070  -0.1456  -1.2633
   6 Li_a:2py    2.7631   0.0000   7.7965  -3.8339   2.5834
   7 Li_a:2py    0.4015   0.0000  13.8350  -0.7367   0.9386
   8 Li_a:2py   -2.0455  -0.0000   1.8890  -1.6467   1.3273
   9 Li_a:2py    0.4497   0.0000  -0.0134   0.4270  -0.2105
  12 Li_a:3d1-   0.0022  -0.0000  -0.0188   0.0391  -0.0116
  13 Li_a:3d1-  -0.0489   0.0000   0.8444  -0.2840  -0.6730
  14 Li_a:3d1-   0.8706   0.0000   2.9989  -0.3661  -0.1506
  15 Li_a:3d1-   1.7162   0.0000   7.9414  -3.0470  -0.9206
  16 Li_a:3d1-  -1.5006   0.0000   2.4250  -0.0321   0.5782
  19 Li_a:4f3-   0.0000  -0.0446  -0.0000  -0.0000  -0.0000
  20 Li_a:4f1-   0.0042   0.0000   0.0622  -0.0077  -0.1504
  21 Li_a:4f3-  -0.0000   0.1449   0.0000   0.0000   0.0000
  22 Li_a:4f1-   0.0221   0.0000   0.5419  -0.2322  -0.1214
  23 Li_a:4f3-   0.0000  -0.4074   0.0000  -0.0000  -0.0000
  24 Li_a:4f1-   0.7013   0.0000   1.0008  -0.2838  -0.2906
  25 Li_a:4f3-  -0.0000   1.2118  -0.0000   0.0000   0.0000
  26 Li_a:4f1-  -1.0884   0.0000   3.1604  -1.0564  -1.0328
  28 Li_a:5g1-  -0.0134   0.0000   0.0635  -0.0269  -0.0752
  29 Li_a:5g3-  -0.0000   0.0173  -0.0000  -0.0000   0.0000
  30 Li_a:5g1-   0.1204  -0.0000   0.0615  -0.0680   0.0800
  31 Li_a:5g3-   0.0000  -0.0915   0.0000   0.0000  -0.0000
  32 Li_a:5g1-   0.0251   0.0000   0.3460  -0.1378  -0.4233
  33 Cl_a:2py    0.0270  -0.0000   0.0355  -0.0074   0.0239
  34 Cl_a:2py    0.0522  -0.0000   0.1114   0.1494   0.0191
  35 Cl_a:2py   -0.0585   0.0000  -0.0770   0.0191  -0.0531
  36 Cl_a:2py    0.0148   0.0000   0.0718  -0.0049  -0.0366
  37 Cl_a:2py   -0.7503  -0.0000  -2.8526   0.9880   1.0238
  41 Cl_a:2py   -3.1243  -0.0000 -15.0978   3.8407   0.0923
  42 Cl_a:2py    2.3675  -0.0000 -10.5775   1.9463  -3.0433
  46 Cl_a:3d1-   0.0013   0.0000   0.0100   0.0025   0.0005
  47 Cl_a:3d1-  -0.0037  -0.0000  -0.0229   0.0283   0.0360
  48 Cl_a:3d1-   0.0105   0.0000   0.1907  -0.0760  -0.1608
  49 Cl_a:3d1-   0.1573   0.0000   2.3890  -0.4729  -1.0665
  50 Cl_a:3d1-   1.2631   0.0000   2.0868  -0.0752   3.7393
  58 Cl_a:4f1-  -0.0013  -0.0000   0.0064  -0.0131  -0.0498
  59 Cl_a:4f3-   0.0000  -0.0213   0.0000  -0.0000   0.0000
  60 Cl_a:4f1-   0.0015  -0.0000  -0.1555   0.0904   0.3271
  61 Cl_a:4f3-  -0.0000   0.0335  -0.0000   0.0000  -0.0000
  62 Cl_a:4f1-   0.0473  -0.0000  -0.6116  -0.0202   0.0151
  68 Cl_a:5g1-   0.0094   0.0000   0.0036  -0.0134  -0.0203
  70 Cl_a:5g1-  -0.0314   0.0000   0.1213   0.0149  -0.0972

 Molecular orbitals for symmetry species 4  (A2 )
 ------------------------------------------------

    Orbital         1        2        3        4        5        6        7
   3 Li_a:3d2-   0.0057   0.0194   0.0102   0.0013   0.0000  -0.0258   0.0860
   4 Li_a:3d2-  -0.0015  -0.0906  -0.0099   0.0163  -0.0000   0.1619  -0.1943
   5 Li_a:3d2-   0.2102   0.2210   0.5278  -0.5798   0.0000   0.1599   2.2187
   6 Li_a:3d2-  -0.5643   0.2399  -2.5001  -3.3209   0.0000  -1.3733  -1.5947
   7 Li_a:3d2-   1.2116   0.3767   0.8316   0.2098  -0.0000   0.0868   0.5120
   9 Li_a:4f2-  -0.0064  -0.0199  -0.0141  -0.0027  -0.0000   0.0285  -0.0741
  10 Li_a:4f2-   0.0642   0.0536   0.1801   0.0246  -0.0000   0.0178   0.4718
  11 Li_a:4f2-   0.0414  -0.1601   0.1394  -0.9308   0.0000   0.7199  -0.3916
  12 Li_a:4f2-  -0.2603   1.5467  -0.9441  -1.5432   0.0000  -1.2356   0.1085
  13 Li_a:5g4-   0.0000   0.0000  -0.0000   0.0000  -0.0734   0.0000   0.0000
  14 Li_a:5g2-  -0.0038   0.0091  -0.0107   0.0155  -0.0000  -0.0700  -0.0142
  15 Li_a:5g4-  -0.0000  -0.0000   0.0000  -0.0000   0.3212  -0.0000  -0.0000
  16 Li_a:5g2-   0.0544  -0.0587   0.1650  -0.0164  -0.0000   0.3897   0.2778
  17 Li_a:5g4-   0.0000   0.0000  -0.0000   0.0000  -1.1718   0.0000   0.0000
  18 Li_a:5g2-  -0.0521   0.1309  -0.2061  -0.4975   0.0000  -1.2991  -0.3252
  23 Cl_a:3d2-   0.0004   0.0091  -0.0084   0.0034  -0.0000   0.0203   0.0257
  24 Cl_a:3d2-   0.0041  -0.0258   0.0036   0.0388   0.0000  -0.0181  -0.0337
  25 Cl_a:3d2-  -0.1429   0.1473  -0.4428   0.1084   0.0000  -0.3108  -0.5421
  26 Cl_a:3d2-   0.2471  -1.1652   1.2653   4.6812  -0.0000   1.8183   0.1754
  29 Cl_a:4f2-   0.0002  -0.0014   0.0017   0.0104  -0.0000  -0.0018  -0.0017
  30 Cl_a:4f2-  -0.0009   0.0093  -0.0078  -0.0648   0.0000   0.0108   0.0065
  31 Cl_a:4f2-  -0.0020  -0.0253   0.0139   0.2155  -0.0000  -0.0716  -0.0568
  32 Cl_a:4f2-   0.0777   0.0270   0.1896  -0.4542   0.0000   0.3449   0.5324
  36 Cl_a:5g2-  -0.0016  -0.0007  -0.0041   0.0022   0.0000  -0.0054  -0.0104
  38 Cl_a:5g2-   0.0067   0.0021   0.0177  -0.0092  -0.0000   0.0255   0.0454
  39 Cl_a:5g4-   0.0000   0.0000  -0.0000   0.0000   0.0124   0.0000   0.0000
  40 Cl_a:5g2-  -0.0215  -0.0017  -0.0601   0.0158   0.0000  -0.0529  -0.1350

    Orbital         8        9       10
   3 Li_a:3d2-  -0.0088  -0.0127   0.0466
   4 Li_a:3d2-  -0.1280   0.2529  -0.4550
   5 Li_a:3d2-  -2.5490   2.3721  -4.3572
   6 Li_a:3d2-  -2.6323  -0.2202   0.0701
   7 Li_a:3d2-   0.0735   0.0403  -0.1673
   9 Li_a:4f2-  -0.0089   0.0006   0.1445
  10 Li_a:4f2-  -0.3401   0.6272  -1.7343
  11 Li_a:4f2-  -2.9266   1.9873  -2.2362
  12 Li_a:4f2-  -0.9362  -0.3567   0.0997
  14 Li_a:5g2-  -0.0069   0.0155   0.1403
  16 Li_a:5g2-  -0.2616   0.6328  -1.9657
  18 Li_a:5g2-  -1.7438   0.6603   0.0119
  21 Cl_a:3d2-  -0.0021  -0.0187   0.0020
  22 Cl_a:3d2-  -0.0304  -0.0215   0.0112
  23 Cl_a:3d2-   0.0205  -0.1894   0.0109
  24 Cl_a:3d2-  -0.2472   0.2100   0.0026
  25 Cl_a:3d2-   2.1473  -3.9280   4.7207
  26 Cl_a:3d2-   4.3768   0.1212   1.0894
  29 Cl_a:4f2-   0.0101   0.0113   0.0149
  30 Cl_a:4f2-  -0.0597  -0.0758  -0.1406
  31 Cl_a:4f2-   0.2256   0.2134   0.5481
  32 Cl_a:4f2-  -1.1354   0.7035  -3.5189
  36 Cl_a:5g2-   0.0062  -0.0070   0.0287
  38 Cl_a:5g2-  -0.0289   0.0327  -0.1339
  40 Cl_a:5g2-   0.1568  -0.2406   0.5191

  Total CPU  time used in SIRIUS :  35.18 seconds
  Total wall time used in SIRIUS :  35.23 seconds

 
     Date and time (Linux)  : Wed Jan 11 15:40:04 2023
     Host name              : cn019                                   


                     .---------------------------------------.
                     | End of Wave Function Section (SIRIUS) |
                     `---------------------------------------'



                 .------------------------------------------------.
                 | Starting in Dynamic Property Section (RESPONS) |
                 `------------------------------------------------'


 ----------------------------------------------------------------------------------------
  RESPONSE  -  an MCSCF, MC-srDFT, DFT, SOPPA and SOPPA-srDFT response property program
 ----------------------------------------------------------------------------------------


 -------- OUTPUT FROM RESPONSE INPUT PROCESSING --------




 Linear Response calculation
 ---------------------------

 Print level                                    : IPRLR  =   2
 Maximum number of iterations                   : MAXITL =  60
 Threshold for relative convergence             : THCLR  = 1.000D-03
 Maximum iterations in optimal orbital algorithm: MAXITO =   5

  9 B-frequencies  0.000000D+00  1.369456D-02  2.738913D-02  4.108369D-02  5.477825D-02
  6.847281D-02  8.216738D-02  9.586194D-02  1.095565D-01

    1 second order properties calculated with symmetry no.    1 and labels:

          ZDIPLEN 

    1 second order properties calculated with symmetry no.    2 and labels:

          XDIPLEN 

    1 second order properties calculated with symmetry no.    3 and labels:

          YDIPLEN 


   SCF energy         :     -467.055508685396489
 -- inactive part     :     -480.411538540051481
 -- nuclear repulsion :       13.356029854654969


                     ***************************************
                     *** RHF response calculation (TDHF) ***
                     ***************************************

 ----------------------------------------------------------------
 ----- Linear response calculation
 ----- Symmetry of excitation/property operator(s)    1  ( A1 )
 ----------------------------------------------------------------

 Number of excitations of this symmetry            0
 Number of response properties of this symmetry    1
 Number of C6/C8 properties of this symmetry       0


 Perturbation symmetry.     KSYMOP:           1
 Perturbation spin symmetry.TRPLET:           F
 Orbital variables.         KZWOPT:         914
 Configuration variables.   KZCONF:           0
 Total number of variables. KZVAR :         914


 RSPLR -- linear response calculation for symmetry 1  ( A1 )
 RSPLR -- operator label : ZDIPLEN 
 RSPLR -- operator spin  :   0
 RSPLR -- frequencies    :     0.000000  0.013695  0.027389  0.041084  0.054778
                               0.068473  0.082167  0.095862  0.109557



 ---  SOLVING SETS OF LINEAR EQUATIONS FOR LINEAR RESPONSE PROPERTIES ---

 Operator symmetry = 1  ( A1 ); triplet =   F


 ** RSPCTL MICROITERATION NUMBER    1

       No.  Residual tot.,    conf., and orb.    Bnorm      Frequency 
      ----------------------------------------------------------------
         1    2.31216D+00  0.00D+00  2.31D+00  4.65D+00    0.00000D+00
         2    2.31393D+00  0.00D+00  2.31D+00  4.66D+00    1.36946D-02
         3    2.31926D+00  0.00D+00  2.32D+00  4.70D+00    2.73891D-02
         4    2.32827D+00  0.00D+00  2.33D+00  4.76D+00    4.10837D-02
         5    2.34115D+00  0.00D+00  2.34D+00  4.84D+00    5.47783D-02
         6    2.35820D+00  0.00D+00  2.36D+00  4.96D+00    6.84728D-02
         7    2.37983D+00  0.00D+00  2.38D+00  5.10D+00    8.21674D-02
         8    2.40662D+00  0.00D+00  2.41D+00  5.28D+00    9.58619D-02
         9    2.43934D+00  0.00D+00  2.44D+00  5.51D+00    1.09557D-01

 ** RSPCTL MICROITERATION NUMBER    2

       No.  Residual tot.,    conf., and orb.    Bnorm      Frequency 
      ----------------------------------------------------------------
         1    4.28939D-01  0.00D+00  4.29D-01  4.96D+00    0.00000D+00
         2    4.29763D-01  0.00D+00  4.30D-01  4.97D+00    1.36946D-02
         3    4.32263D-01  0.00D+00  4.32D-01  5.01D+00    2.73891D-02
         4    4.36517D-01  0.00D+00  4.37D-01  5.08D+00    4.10837D-02
         5    4.42667D-01  0.00D+00  4.43D-01  5.17D+00    5.47783D-02
         6    4.50927D-01  0.00D+00  4.51D-01  5.30D+00    6.84728D-02
         7    4.61608D-01  0.00D+00  4.62D-01  5.47D+00    8.21674D-02
         8    4.75148D-01  0.00D+00  4.75D-01  5.67D+00    9.58619D-02
         9    4.92174D-01  0.00D+00  4.92D-01  5.93D+00    1.09557D-01

 ** RSPCTL MICROITERATION NUMBER    3

       No.  Residual tot.,    conf., and orb.    Bnorm      Frequency 
      ----------------------------------------------------------------
         1    8.38044D-02  0.00D+00  8.38D-02  4.97D+00    0.00000D+00
         2    8.40662D-02  0.00D+00  8.41D-02  4.99D+00    1.36946D-02
         3    8.48611D-02  0.00D+00  8.49D-02  5.03D+00    2.73891D-02
         4    8.62190D-02  0.00D+00  8.62D-02  5.10D+00    4.10837D-02
         5    8.81927D-02  0.00D+00  8.82D-02  5.19D+00    5.47783D-02
         6    9.08627D-02  0.00D+00  9.09D-02  5.32D+00    6.84728D-02
         7    9.43450D-02  0.00D+00  9.43D-02  5.49D+00    8.21674D-02
         8    9.88043D-02  0.00D+00  9.88D-02  5.70D+00    9.58619D-02
         9    1.04474D-01  0.00D+00  1.04D-01  5.96D+00    1.09557D-01

 ** RSPCTL MICROITERATION NUMBER    4

       No.  Residual tot.,    conf., and orb.    Bnorm      Frequency 
      ----------------------------------------------------------------
         1    1.17654D-02  0.00D+00  1.18D-02  4.97D+00    0.00000D+00
         2    1.18012D-02  0.00D+00  1.18D-02  4.99D+00    1.36946D-02
         3    1.19100D-02  0.00D+00  1.19D-02  5.03D+00    2.73891D-02
         4    1.20959D-02  0.00D+00  1.21D-02  5.10D+00    4.10837D-02
         5    1.23663D-02  0.00D+00  1.24D-02  5.19D+00    5.47783D-02
         6    1.27324D-02  0.00D+00  1.27D-02  5.32D+00    6.84728D-02
         7    1.32109D-02  0.00D+00  1.32D-02  5.49D+00    8.21674D-02
         8    1.38254D-02  0.00D+00  1.38D-02  5.70D+00    9.58619D-02
         9    1.46106D-02  0.00D+00  1.46D-02  5.96D+00    1.09557D-01

 ** RSPCTL MICROITERATION NUMBER    5

       No.  Residual tot.,    conf., and orb.    Bnorm      Frequency 
      ----------------------------------------------------------------
         1    1.54008D-03  0.00D+00  1.54D-03  4.97D+00    0.00000D+00
         2    1.54792D-03  0.00D+00  1.55D-03  4.99D+00    1.36946D-02
         3    1.57181D-03  0.00D+00  1.57D-03  5.03D+00    2.73891D-02
         4    1.61301D-03  0.00D+00  1.61D-03  5.10D+00    4.10837D-02
         5    1.67372D-03  0.00D+00  1.67D-03  5.19D+00    5.47783D-02
         6    1.75741D-03  0.00D+00  1.76D-03  5.32D+00    6.84728D-02
         7    1.86919D-03  0.00D+00  1.87D-03  5.49D+00    8.21674D-02
         8    2.01660D-03  0.00D+00  2.02D-03  5.70D+00    9.58619D-02
         9    2.21073D-03  0.00D+00  2.21D-03  5.96D+00    1.09557D-01

 *** THE REQUESTED    9 SOLUTION VECTORS CONVERGED

 Convergence of RSP solution vectors, threshold = 1.00D-03
 ---------------------------------------------------------------
 (dimension of paired reduced space:   90)
 RSP solution vector no.    1; norm of residual   3.10D-04
 RSP solution vector no.    2; norm of residual   3.10D-04
 RSP solution vector no.    3; norm of residual   3.13D-04
 RSP solution vector no.    4; norm of residual   3.17D-04
 RSP solution vector no.    5; norm of residual   3.22D-04
 RSP solution vector no.    6; norm of residual   3.30D-04
 RSP solution vector no.    7; norm of residual   3.40D-04
 RSP solution vector no.    8; norm of residual   3.54D-04
 RSP solution vector no.    9; norm of residual   3.71D-04

 *** RSPCTL MICROITERATIONS CONVERGED


           Final output of second order properties from linear response
           ------------------------------------------------------------


@ Spin symmetry of operators: singlet

 Note that minus the linear response function: - << A; B >>(omega) is printed.
 The results are of quadratic accuracy using Sellers formula.

@ FREQUENCY INDEPENDENT SECOND ORDER PROPERTIES

@ -<< ZDIPLEN  ; ZDIPLEN  >> =  2.453411468644E+01

@ FREQUENCY DEPENDENT SECOND ORDER PROPERTIES WITH FREQUENCY :

@    a.u.:  1.3694563D-02
@    cm-1:  3.0056090D+03
@    eV  :  3.7264800D-01
@  kJ/mol:  3.5955068D+01
@    nm  :  3.3271127D+03

@ -<< ZDIPLEN  ; ZDIPLEN  >> =  2.456397566594E+01

@ FREQUENCY DEPENDENT SECOND ORDER PROPERTIES WITH FREQUENCY :

@    a.u.:  2.7389125D-02
@    cm-1:  6.0112181D+03
@    eV  :  7.4529600D-01
@  kJ/mol:  7.1910137D+01
@    nm  :  1.6635564D+03

@ -<< ZDIPLEN  ; ZDIPLEN  >> =  2.465422139627E+01

@ FREQUENCY DEPENDENT SECOND ORDER PROPERTIES WITH FREQUENCY :

@    a.u.:  4.1083688D-02
@    cm-1:  9.0168271D+03
@    eV  :  1.1179440D+00
@  kJ/mol:  1.0786520D+02
@    nm  :  1.1090376D+03

@ -<< ZDIPLEN  ; ZDIPLEN  >> =  2.480688598940E+01

@ FREQUENCY DEPENDENT SECOND ORDER PROPERTIES WITH FREQUENCY :

@    a.u.:  5.4778250D-02
@    cm-1:  1.2022436D+04
@    eV  :  1.4905920D+00
@  kJ/mol:  1.4382027D+02
@    nm  :  8.3177818D+02

@ -<< ZDIPLEN  ; ZDIPLEN  >> =  2.502551879873E+01

@ FREQUENCY DEPENDENT SECOND ORDER PROPERTIES WITH FREQUENCY :

@    a.u.:  6.8472813D-02
@    cm-1:  1.5028045D+04
@    eV  :  1.8632400D+00
@  kJ/mol:  1.7977534D+02
@    nm  :  6.6542254D+02

@ -<< ZDIPLEN  ; ZDIPLEN  >> =  2.531544840488E+01

@ FREQUENCY DEPENDENT SECOND ORDER PROPERTIES WITH FREQUENCY :

@    a.u.:  8.2167375D-02
@    cm-1:  1.8033654D+04
@    eV  :  2.2358880D+00
@  kJ/mol:  2.1573041D+02
@    nm  :  5.5451878D+02

@ -<< ZDIPLEN  ; ZDIPLEN  >> =  2.568420967596E+01

@ FREQUENCY DEPENDENT SECOND ORDER PROPERTIES WITH FREQUENCY :

@    a.u.:  9.5861937D-02
@    cm-1:  2.1039263D+04
@    eV  :  2.6085360D+00
@  kJ/mol:  2.5168548D+02
@    nm  :  4.7530182D+02

@ -<< ZDIPLEN  ; ZDIPLEN  >> =  2.614221084785E+01

@ FREQUENCY DEPENDENT SECOND ORDER PROPERTIES WITH FREQUENCY :

@    a.u.:  1.0955650D-01
@    cm-1:  2.4044872D+04
@    eV  :  2.9811840D+00
@  kJ/mol:  2.8764055D+02
@    nm  :  4.1588909D+02

@ -<< ZDIPLEN  ; ZDIPLEN  >> =  2.670377744554E+01


 Time used in linear response calculation is     33.26 CPU seconds for symmetry 1
 ----------------------------------------------------------------
 ----- Linear response calculation
 ----- Symmetry of excitation/property operator(s)    2  ( B1 )
 ----------------------------------------------------------------

 Number of excitations of this symmetry            0
 Number of response properties of this symmetry    1
 Number of C6/C8 properties of this symmetry       0


 Perturbation symmetry.     KSYMOP:           2
 Perturbation spin symmetry.TRPLET:           F
 Orbital variables.         KZWOPT:         702
 Configuration variables.   KZCONF:           0
 Total number of variables. KZVAR :         702


 RSPLR -- linear response calculation for symmetry 2  ( B1 )
 RSPLR -- operator label : XDIPLEN 
 RSPLR -- operator spin  :   0
 RSPLR -- frequencies    :     0.000000  0.013695  0.027389  0.041084  0.054778
                               0.068473  0.082167  0.095862  0.109557



 ---  SOLVING SETS OF LINEAR EQUATIONS FOR LINEAR RESPONSE PROPERTIES ---

 Operator symmetry = 2  ( B1 ); triplet =   F


 ** RSPCTL MICROITERATION NUMBER    1

       No.  Residual tot.,    conf., and orb.    Bnorm      Frequency 
      ----------------------------------------------------------------
         1    1.69264D+00  0.00D+00  1.69D+00  4.83D+00    0.00000D+00
         2    1.69381D+00  0.00D+00  1.69D+00  4.84D+00    1.36946D-02
         3    1.69735D+00  0.00D+00  1.70D+00  4.88D+00    2.73891D-02
         4    1.70334D+00  0.00D+00  1.70D+00  4.95D+00    4.10837D-02
         5    1.71193D+00  0.00D+00  1.71D+00  5.05D+00    5.47783D-02
         6    1.72338D+00  0.00D+00  1.72D+00  5.18D+00    6.84728D-02
         7    1.73803D+00  0.00D+00  1.74D+00  5.35D+00    8.21674D-02
         8    1.75640D+00  0.00D+00  1.76D+00  5.57D+00    9.58619D-02
         9    1.77923D+00  0.00D+00  1.78D+00  5.85D+00    1.09557D-01

 ** RSPCTL MICROITERATION NUMBER    2

       No.  Residual tot.,    conf., and orb.    Bnorm      Frequency 
      ----------------------------------------------------------------
         1    2.80037D-01  0.00D+00  2.80D-01  5.05D+00    0.00000D+00
         2    2.80372D-01  0.00D+00  2.80D-01  5.07D+00    1.36946D-02
         3    2.81391D-01  0.00D+00  2.81D-01  5.11D+00    2.73891D-02
         4    2.83133D-01  0.00D+00  2.83D-01  5.19D+00    4.10837D-02
         5    2.85671D-01  0.00D+00  2.86D-01  5.30D+00    5.47783D-02
         6    2.89120D-01  0.00D+00  2.89D-01  5.46D+00    6.84728D-02
         7    2.93657D-01  0.00D+00  2.94D-01  5.65D+00    8.21674D-02
         8    2.99551D-01  0.00D+00  3.00D-01  5.91D+00    9.58619D-02
         9    3.07227D-01  0.00D+00  3.07D-01  6.24D+00    1.09557D-01

 ** RSPCTL MICROITERATION NUMBER    3

       No.  Residual tot.,    conf., and orb.    Bnorm      Frequency 
      ----------------------------------------------------------------
         1    2.59935D-02  0.00D+00  2.60D-02  5.06D+00    0.00000D+00
         2    2.61476D-02  0.00D+00  2.61D-02  5.07D+00    1.36946D-02
         3    2.66165D-02  0.00D+00  2.66D-02  5.12D+00    2.73891D-02
         4    2.74205D-02  0.00D+00  2.74D-02  5.20D+00    4.10837D-02
         5    2.85962D-02  0.00D+00  2.86D-02  5.31D+00    5.47783D-02
         6    3.02005D-02  0.00D+00  3.02D-02  5.46D+00    6.84728D-02
         7    3.23185D-02  0.00D+00  3.23D-02  5.66D+00    8.21674D-02
         8    3.50765D-02  0.00D+00  3.51D-02  5.92D+00    9.58619D-02
         9    3.86644D-02  0.00D+00  3.87D-02  6.25D+00    1.09557D-01

 ** RSPCTL MICROITERATION NUMBER    4

       No.  Residual tot.,    conf., and orb.    Bnorm      Frequency 
      ----------------------------------------------------------------
         1    4.18092D-03  0.00D+00  4.18D-03  5.06D+00    0.00000D+00
         2    4.21366D-03  0.00D+00  4.21D-03  5.07D+00    1.36946D-02
         3    4.31352D-03  0.00D+00  4.31D-03  5.12D+00    2.73891D-02
         4    4.48562D-03  0.00D+00  4.49D-03  5.20D+00    4.10837D-02
         5    4.73919D-03  0.00D+00  4.74D-03  5.31D+00    5.47783D-02
         6    5.08865D-03  0.00D+00  5.09D-03  5.46D+00    6.84728D-02
         7    5.55557D-03  0.00D+00  5.56D-03  5.66D+00    8.21674D-02
         8    6.17195D-03  0.00D+00  6.17D-03  5.92D+00    9.58619D-02
         9    6.98579D-03  0.00D+00  6.99D-03  6.25D+00    1.09557D-01

 ** RSPCTL MICROITERATION NUMBER    5

       No.  Residual tot.,    conf., and orb.    Bnorm      Frequency 
      ----------------------------------------------------------------
         1    7.47261D-04  0.00D+00  7.47D-04  5.06D+00    0.00000D+00
         2    7.52182D-04  0.00D+00  7.52D-04  5.07D+00    1.36946D-02
         3    7.67341D-04  0.00D+00  7.67D-04  5.12D+00    2.73891D-02
         4    7.94003D-04  0.00D+00  7.94D-04  5.20D+00    4.10837D-02
         5    8.34528D-04  0.00D+00  8.35D-04  5.31D+00    5.47783D-02
         6    8.92851D-04  0.00D+00  8.93D-04  5.46D+00    6.84728D-02
         7    9.75374D-04  0.00D+00  9.75D-04  5.66D+00    8.21674D-02
         8    1.09266D-03  0.00D+00  1.09D-03  5.92D+00    9.58619D-02
         9    1.26274D-03  0.00D+00  1.26D-03  6.25D+00    1.09557D-01

 *** THE REQUESTED    9 SOLUTION VECTORS CONVERGED

 Convergence of RSP solution vectors, threshold = 1.00D-03
 ---------------------------------------------------------------
 (dimension of paired reduced space:   76)
 RSP solution vector no.    1; norm of residual   1.48D-04
 RSP solution vector no.    2; norm of residual   1.48D-04
 RSP solution vector no.    3; norm of residual   1.50D-04
 RSP solution vector no.    4; norm of residual   1.53D-04
 RSP solution vector no.    5; norm of residual   1.57D-04
 RSP solution vector no.    6; norm of residual   1.63D-04
 RSP solution vector no.    7; norm of residual   1.72D-04
 RSP solution vector no.    8; norm of residual   1.85D-04
 RSP solution vector no.    9; norm of residual   2.02D-04

 *** RSPCTL MICROITERATIONS CONVERGED


           Final output of second order properties from linear response
           ------------------------------------------------------------


@ Spin symmetry of operators: singlet

 Note that minus the linear response function: - << A; B >>(omega) is printed.
 The results are of quadratic accuracy using Sellers formula.

@ FREQUENCY INDEPENDENT SECOND ORDER PROPERTIES

@ -<< XDIPLEN  ; XDIPLEN  >> =  2.377462230342E+01

@ FREQUENCY DEPENDENT SECOND ORDER PROPERTIES WITH FREQUENCY :

@    a.u.:  1.3694563D-02
@    cm-1:  3.0056090D+03
@    eV  :  3.7264800D-01
@  kJ/mol:  3.5955068D+01
@    nm  :  3.3271127D+03

@ -<< XDIPLEN  ; XDIPLEN  >> =  2.380625664842E+01

@ FREQUENCY DEPENDENT SECOND ORDER PROPERTIES WITH FREQUENCY :

@    a.u.:  2.7389125D-02
@    cm-1:  6.0112181D+03
@    eV  :  7.4529600D-01
@  kJ/mol:  7.1910137D+01
@    nm  :  1.6635564D+03

@ -<< XDIPLEN  ; XDIPLEN  >> =  2.390200144601E+01

@ FREQUENCY DEPENDENT SECOND ORDER PROPERTIES WITH FREQUENCY :

@    a.u.:  4.1083688D-02
@    cm-1:  9.0168271D+03
@    eV  :  1.1179440D+00
@  kJ/mol:  1.0786520D+02
@    nm  :  1.1090376D+03

@ -<< XDIPLEN  ; XDIPLEN  >> =  2.406445698677E+01

@ FREQUENCY DEPENDENT SECOND ORDER PROPERTIES WITH FREQUENCY :

@    a.u.:  5.4778250D-02
@    cm-1:  1.2022436D+04
@    eV  :  1.4905920D+00
@  kJ/mol:  1.4382027D+02
@    nm  :  8.3177818D+02

@ -<< XDIPLEN  ; XDIPLEN  >> =  2.429822194271E+01

@ FREQUENCY DEPENDENT SECOND ORDER PROPERTIES WITH FREQUENCY :

@    a.u.:  6.8472813D-02
@    cm-1:  1.5028045D+04
@    eV  :  1.8632400D+00
@  kJ/mol:  1.7977534D+02
@    nm  :  6.6542254D+02

@ -<< XDIPLEN  ; XDIPLEN  >> =  2.461034790698E+01

@ FREQUENCY DEPENDENT SECOND ORDER PROPERTIES WITH FREQUENCY :

@    a.u.:  8.2167375D-02
@    cm-1:  1.8033654D+04
@    eV  :  2.2358880D+00
@  kJ/mol:  2.1573041D+02
@    nm  :  5.5451878D+02

@ -<< XDIPLEN  ; XDIPLEN  >> =  2.501111238325E+01

@ FREQUENCY DEPENDENT SECOND ORDER PROPERTIES WITH FREQUENCY :

@    a.u.:  9.5861937D-02
@    cm-1:  2.1039263D+04
@    eV  :  2.6085360D+00
@  kJ/mol:  2.5168548D+02
@    nm  :  4.7530182D+02

@ -<< XDIPLEN  ; XDIPLEN  >> =  2.551531220293E+01

@ FREQUENCY DEPENDENT SECOND ORDER PROPERTIES WITH FREQUENCY :

@    a.u.:  1.0955650D-01
@    cm-1:  2.4044872D+04
@    eV  :  2.9811840D+00
@  kJ/mol:  2.8764055D+02
@    nm  :  4.1588909D+02

@ -<< XDIPLEN  ; XDIPLEN  >> =  2.614447861524E+01


 Time used in linear response calculation is     30.92 CPU seconds for symmetry 2
 ----------------------------------------------------------------
 ----- Linear response calculation
 ----- Symmetry of excitation/property operator(s)    3  ( B2 )
 ----------------------------------------------------------------

 Number of excitations of this symmetry            0
 Number of response properties of this symmetry    1
 Number of C6/C8 properties of this symmetry       0


 Perturbation symmetry.     KSYMOP:           3
 Perturbation spin symmetry.TRPLET:           F
 Orbital variables.         KZWOPT:         702
 Configuration variables.   KZCONF:           0
 Total number of variables. KZVAR :         702


 RSPLR -- linear response calculation for symmetry 3  ( B2 )
 RSPLR -- operator label : YDIPLEN 
 RSPLR -- operator spin  :   0
 RSPLR -- frequencies    :     0.000000  0.013695  0.027389  0.041084  0.054778
                               0.068473  0.082167  0.095862  0.109557



 ---  SOLVING SETS OF LINEAR EQUATIONS FOR LINEAR RESPONSE PROPERTIES ---

 Operator symmetry = 3  ( B2 ); triplet =   F


 ** RSPCTL MICROITERATION NUMBER    1

       No.  Residual tot.,    conf., and orb.    Bnorm      Frequency 
      ----------------------------------------------------------------
         1    1.68821D+00  0.00D+00  1.69D+00  4.82D+00    0.00000D+00
         2    1.68933D+00  0.00D+00  1.69D+00  4.83D+00    1.36946D-02
         3    1.69272D+00  0.00D+00  1.69D+00  4.87D+00    2.73891D-02
         4    1.69845D+00  0.00D+00  1.70D+00  4.94D+00    4.10837D-02
         5    1.70665D+00  0.00D+00  1.71D+00  5.04D+00    5.47783D-02
         6    1.71754D+00  0.00D+00  1.72D+00  5.17D+00    6.84728D-02
         7    1.73141D+00  0.00D+00  1.73D+00  5.34D+00    8.21674D-02
         8    1.74870D+00  0.00D+00  1.75D+00  5.56D+00    9.58619D-02
         9    1.77003D+00  0.00D+00  1.77D+00  5.84D+00    1.09557D-01

 ** RSPCTL MICROITERATION NUMBER    2

       No.  Residual tot.,    conf., and orb.    Bnorm      Frequency 
      ----------------------------------------------------------------
         1    2.97990D-01  0.00D+00  2.98D-01  5.05D+00    0.00000D+00
         2    2.98405D-01  0.00D+00  2.98D-01  5.07D+00    1.36946D-02
         3    2.99666D-01  0.00D+00  3.00D-01  5.11D+00    2.73891D-02
         4    3.01821D-01  0.00D+00  3.02D-01  5.19D+00    4.10837D-02
         5    3.04954D-01  0.00D+00  3.05D-01  5.30D+00    5.47783D-02
         6    3.09202D-01  0.00D+00  3.09D-01  5.46D+00    6.84728D-02
         7    3.14766D-01  0.00D+00  3.15D-01  5.65D+00    8.21674D-02
         8    3.21950D-01  0.00D+00  3.22D-01  5.91D+00    9.58619D-02
         9    3.31215D-01  0.00D+00  3.31D-01  6.24D+00    1.09557D-01

 ** RSPCTL MICROITERATION NUMBER    3

       No.  Residual tot.,    conf., and orb.    Bnorm      Frequency 
      ----------------------------------------------------------------
         1    2.68324D-02  0.00D+00  2.68D-02  5.06D+00    0.00000D+00
         2    2.69606D-02  0.00D+00  2.70D-02  5.07D+00    1.36946D-02
         3    2.73506D-02  0.00D+00  2.74D-02  5.12D+00    2.73891D-02
         4    2.80193D-02  0.00D+00  2.80D-02  5.20D+00    4.10837D-02
         5    2.89966D-02  0.00D+00  2.90D-02  5.31D+00    5.47783D-02
         6    3.03284D-02  0.00D+00  3.03D-02  5.46D+00    6.84728D-02
         7    3.20820D-02  0.00D+00  3.21D-02  5.66D+00    8.21674D-02
         8    3.43545D-02  0.00D+00  3.44D-02  5.92D+00    9.58619D-02
         9    3.72877D-02  0.00D+00  3.73D-02  6.25D+00    1.09557D-01

 ** RSPCTL MICROITERATION NUMBER    4

       No.  Residual tot.,    conf., and orb.    Bnorm      Frequency 
      ----------------------------------------------------------------
         1    4.26601D-03  0.00D+00  4.27D-03  5.06D+00    0.00000D+00
         2    4.30623D-03  0.00D+00  4.31D-03  5.07D+00    1.36946D-02
         3    4.42892D-03  0.00D+00  4.43D-03  5.12D+00    2.73891D-02
         4    4.64030D-03  0.00D+00  4.64D-03  5.20D+00    4.10837D-02
         5    4.95154D-03  0.00D+00  4.95D-03  5.31D+00    5.47783D-02
         6    5.37994D-03  0.00D+00  5.38D-03  5.46D+00    6.84728D-02
         7    5.95111D-03  0.00D+00  5.95D-03  5.66D+00    8.21674D-02
         8    6.70248D-03  0.00D+00  6.70D-03  5.92D+00    9.58619D-02
         9    7.68917D-03  0.00D+00  7.69D-03  6.25D+00    1.09557D-01

 ** RSPCTL MICROITERATION NUMBER    5

       No.  Residual tot.,    conf., and orb.    Bnorm      Frequency 
      ----------------------------------------------------------------
         1    9.76722D-04  0.00D+00  9.77D-04  5.06D+00    0.00000D+00
         2    9.88639D-04  0.00D+00  9.89D-04  5.07D+00    1.36946D-02
         3    1.02496D-03  0.00D+00  1.02D-03  5.12D+00    2.73891D-02
         4    1.08748D-03  0.00D+00  1.09D-03  5.20D+00    4.10837D-02
         5    1.17944D-03  0.00D+00  1.18D-03  5.31D+00    5.47783D-02
         6    1.30598D-03  0.00D+00  1.31D-03  5.46D+00    6.84728D-02
         7    1.47494D-03  0.00D+00  1.47D-03  5.66D+00    8.21674D-02
         8    1.69818D-03  0.00D+00  1.70D-03  5.92D+00    9.58619D-02
         9    1.99406D-03  0.00D+00  1.99D-03  6.25D+00    1.09557D-01

 *** THE REQUESTED    9 SOLUTION VECTORS CONVERGED

 Convergence of RSP solution vectors, threshold = 1.00D-03
 ---------------------------------------------------------------
 (dimension of paired reduced space:   78)
 RSP solution vector no.    1; norm of residual   1.93D-04
 RSP solution vector no.    2; norm of residual   1.95D-04
 RSP solution vector no.    3; norm of residual   2.00D-04
 RSP solution vector no.    4; norm of residual   2.09D-04
 RSP solution vector no.    5; norm of residual   2.22D-04
 RSP solution vector no.    6; norm of residual   2.39D-04
 RSP solution vector no.    7; norm of residual   2.61D-04
 RSP solution vector no.    8; norm of residual   2.87D-04
 RSP solution vector no.    9; norm of residual   3.19D-04

 *** RSPCTL MICROITERATIONS CONVERGED


           Final output of second order properties from linear response
           ------------------------------------------------------------


@ Spin symmetry of operators: singlet

 Note that minus the linear response function: - << A; B >>(omega) is printed.
 The results are of quadratic accuracy using Sellers formula.

@ FREQUENCY INDEPENDENT SECOND ORDER PROPERTIES

@ -<< YDIPLEN  ; YDIPLEN  >> =  2.377462230258E+01

@ FREQUENCY DEPENDENT SECOND ORDER PROPERTIES WITH FREQUENCY :

@    a.u.:  1.3694563D-02
@    cm-1:  3.0056090D+03
@    eV  :  3.7264800D-01
@  kJ/mol:  3.5955068D+01
@    nm  :  3.3271127D+03

@ -<< YDIPLEN  ; YDIPLEN  >> =  2.380625664737E+01

@ FREQUENCY DEPENDENT SECOND ORDER PROPERTIES WITH FREQUENCY :

@    a.u.:  2.7389125D-02
@    cm-1:  6.0112181D+03
@    eV  :  7.4529600D-01
@  kJ/mol:  7.1910137D+01
@    nm  :  1.6635564D+03

@ -<< YDIPLEN  ; YDIPLEN  >> =  2.390200144433E+01

@ FREQUENCY DEPENDENT SECOND ORDER PROPERTIES WITH FREQUENCY :

@    a.u.:  4.1083688D-02
@    cm-1:  9.0168271D+03
@    eV  :  1.1179440D+00
@  kJ/mol:  1.0786520D+02
@    nm  :  1.1090376D+03

@ -<< YDIPLEN  ; YDIPLEN  >> =  2.406445698399E+01

@ FREQUENCY DEPENDENT SECOND ORDER PROPERTIES WITH FREQUENCY :

@    a.u.:  5.4778250D-02
@    cm-1:  1.2022436D+04
@    eV  :  1.4905920D+00
@  kJ/mol:  1.4382027D+02
@    nm  :  8.3177818D+02

@ -<< YDIPLEN  ; YDIPLEN  >> =  2.429822193823E+01

@ FREQUENCY DEPENDENT SECOND ORDER PROPERTIES WITH FREQUENCY :

@    a.u.:  6.8472813D-02
@    cm-1:  1.5028045D+04
@    eV  :  1.8632400D+00
@  kJ/mol:  1.7977534D+02
@    nm  :  6.6542254D+02

@ -<< YDIPLEN  ; YDIPLEN  >> =  2.461034790002E+01

@ FREQUENCY DEPENDENT SECOND ORDER PROPERTIES WITH FREQUENCY :

@    a.u.:  8.2167375D-02
@    cm-1:  1.8033654D+04
@    eV  :  2.2358880D+00
@  kJ/mol:  2.1573041D+02
@    nm  :  5.5451878D+02

@ -<< YDIPLEN  ; YDIPLEN  >> =  2.501111237269E+01

@ FREQUENCY DEPENDENT SECOND ORDER PROPERTIES WITH FREQUENCY :

@    a.u.:  9.5861937D-02
@    cm-1:  2.1039263D+04
@    eV  :  2.6085360D+00
@  kJ/mol:  2.5168548D+02
@    nm  :  4.7530182D+02

@ -<< YDIPLEN  ; YDIPLEN  >> =  2.551531218711E+01

@ FREQUENCY DEPENDENT SECOND ORDER PROPERTIES WITH FREQUENCY :

@    a.u.:  1.0955650D-01
@    cm-1:  2.4044872D+04
@    eV  :  2.9811840D+00
@  kJ/mol:  2.8764055D+02
@    nm  :  4.1588909D+02

@ -<< YDIPLEN  ; YDIPLEN  >> =  2.614447859159E+01


 Time used in linear response calculation is     31.30 CPU seconds for symmetry 3

  Total CPU  time used in RESPONSE:  1 minute  35 seconds
  Total wall time used in RESPONSE:  1 minute  36 seconds


                   .-------------------------------------------.
                   | End of Dynamic Property Section (RESPONS) |
                   `-------------------------------------------'

  Total CPU  time used in DALTON:  2 minutes 13 seconds
  Total wall time used in DALTON:  2 minutes 13 seconds

 
     Date and time (Linux)  : Wed Jan 11 15:41:39 2023
     Host name              : cn019                                   
