

     ************************************************************************
     *************** Dalton - An Electronic Structure Program ***************
     ************************************************************************

    This is output from DALTON release Dalton2020.0 (2020)
         ( Web site: http://daltonprogram.org )

   ----------------------------------------------------------------------------

    NOTE:
     
    Dalton is an experimental code for the evaluation of molecular
    properties using (MC)SCF, DFT, CI, and CC wave functions.
    The authors accept no responsibility for the performance of
    the code or for the correctness of the results.
     
    The code (in whole or part) is provided under a licence and
    is not to be reproduced for further distribution without
    the written permission of the authors or their representatives.
     
    See the home page "http://daltonprogram.org" for further information.
     
    If results obtained with this code are published,
    the appropriate citations would be both of:
     
       K. Aidas, C. Angeli, K. L. Bak, V. Bakken, R. Bast,
       L. Boman, O. Christiansen, R. Cimiraglia, S. Coriani,
       P. Dahle, E. K. Dalskov, U. Ekstroem,
       T. Enevoldsen, J. J. Eriksen, P. Ettenhuber, B. Fernandez,
       L. Ferrighi, H. Fliegl, L. Frediani, K. Hald, A. Halkier,
       C. Haettig, H. Heiberg, T. Helgaker, A. C. Hennum,
       H. Hettema, E. Hjertenaes, S. Hoest, I.-M. Hoeyvik,
       M. F. Iozzi, B. Jansik, H. J. Aa. Jensen, D. Jonsson,
       P. Joergensen, J. Kauczor, S. Kirpekar,
       T. Kjaergaard, W. Klopper, S. Knecht, R. Kobayashi, H. Koch,
       J. Kongsted, A. Krapp, K. Kristensen, A. Ligabue,
       O. B. Lutnaes, J. I. Melo, K. V. Mikkelsen, R. H. Myhre,
       C. Neiss, C. B. Nielsen, P. Norman, J. Olsen,
       J. M. H. Olsen, A. Osted, M. J. Packer, F. Pawlowski,
       T. B. Pedersen, P. F. Provasi, S. Reine, Z. Rinkevicius,
       T. A. Ruden, K. Ruud, V. Rybkin, P. Salek, C. C. M. Samson,
       A. Sanchez de Meras, T. Saue, S. P. A. Sauer,
       B. Schimmelpfennig, K. Sneskov, A. H. Steindal,
       K. O. Sylvester-Hvid, P. R. Taylor, A. M. Teale,
       E. I. Tellgren, D. P. Tew, A. J. Thorvaldsen, L. Thoegersen,
       O. Vahtras, M. A. Watson, D. J. D. Wilson, M. Ziolkowski
       and H. Agren,
       "The Dalton quantum chemistry program system",
       WIREs Comput. Mol. Sci. 2014, 4:269–284 (doi: 10.1002/wcms.1172)
     
    and
     
       Dalton, a molecular electronic structure program,
       Release Dalton2020.0 (2020), see http://daltonprogram.org
   ----------------------------------------------------------------------------

    Authors in alphabetical order (Major contribution(s) in parenthesis):

  Kestutis Aidas,           Vilnius University,           Lithuania   (QM/MM)
  Celestino Angeli,         University of Ferrara,        Italy       (NEVPT2)
  Keld L. Bak,              UNI-C,                        Denmark     (AOSOPPA, non-adiabatic coupling, magnetic properties)
  Vebjoern Bakken,          University of Oslo,           Norway      (DALTON; geometry optimizer, symmetry detection)
  Radovan Bast,             UiT The Arctic U. of Norway,  Norway      (DALTON installation and execution frameworks)
  Pablo Baudin,             University of Valencia,       Spain       (Cholesky excitation energies)
  Linus Boman,              NTNU,                         Norway      (Cholesky decomposition and subsystems)
  Bruno N. Cabral Tenorio,  Technical Univ. of Denmark,   Denmark     (Lanczos-based CC methods)
  Ove Christiansen,         Aarhus University,            Denmark     (CC module)
  Renzo Cimiraglia,         University of Ferrara,        Italy       (NEVPT2)
  Sonia Coriani,            Technical Univ. of Denmark,   Denmark     (CC and RESPONS modules)
  Janusz Cukras,            University of Warsaw,         Poland      (MChD in RESPONS)
  Paal Dahle,               University of Oslo,           Norway      (Parallelization)
  Erik K. Dalskov,          UNI-C,                        Denmark     (SOPPA)
  Thomas Enevoldsen,        Univ. of Southern Denmark,    Denmark     (SOPPA)
  Janus J. Eriksen,         Aarhus University,            Denmark     (Polarizable embedding, TDA)
  Rasmus Faber,             Technical Univ. of Denmark,   Denmark     (Vib.avg. NMR w. SOPPA, parallel AO-SOPPA, CVS-CC and EOMCC)
  Tobias Fahleson,          KTH Stockholm,                Sweden      (Damped cubic response)
  Berta Fernandez,          U. of Santiago de Compostela, Spain       (Doublet spin, ESR in RESPONS)
  Lara Ferrighi,            Aarhus University,            Denmark     (PCM Cubic response)
  Heike Fliegl,             University of Oslo,           Norway      (CCSD(R12))
  Luca Frediani,            UiT The Arctic U. of Norway,  Norway      (PCM)
  Emmanuel Fromager,        Univ. Strasbourg,             France      (MC-srDFT)
  Bin Gao,                  UiT The Arctic U. of Norway,  Norway      (Gen1Int library)
  Andre S. P. Gomes,        CNRS/Universite de Lille,     France      (Frozen density embedding)
  Christof Haettig,         Ruhr-University Bochum,       Germany     (CC module)
  Kasper Hald,              Aarhus University,            Denmark     (CC module)
  Asger Halkier,            Aarhus University,            Denmark     (CC module)
  Frederik Beyer Hansen,    University of Copenhagen,     Denmark     (Parallel AO-SOPPA)
  Erik D. Hedegaard,        Univ. of Southern Denmark,    Denmark     (Polarizable embedding, QM/MM, and MC-srDFT)
  Hanne Heiberg,            University of Oslo,           Norway      (Geometry analysis, selected one-electron integrals)
  Trygve Helgaker,          University of Oslo,           Norway      (DALTON; ABACUS, ERI, DFT modules, London, and much more)
  Alf Christian Hennum,     University of Oslo,           Norway      (Parity violation)
  Hinne Hettema,            University of Auckland,       New Zealand (Quadratic response in RESPONS; SIRIUS supersymmetry)
  Eirik Hjertenaes,         NTNU,                         Norway      (Cholesky decomposition)
  Pi A. B. Haase,           University of Copenhagen,     Denmark     (Triplet AO-SOPPA)
  Maria Francesca Iozzi,    University of Oslo,           Norway      (RPA)
  Christoph Jacob           TU Braunschweig               Germany     (Frozen density embedding)
  Brano Jansik              Technical Univ. of Ostrava    Czech Rep.  (DFT cubic response)
  Hans Joergen Aa. Jensen,  Univ. of Southern Denmark,    Denmark     (DALTON; SIRIUS, RESPONS, ABACUS, MC-srDFT, and much more)
  Dan Jonsson,              UiT The Arctic U. of Norway,  Norway      (Cubic response in RESPONS module)
  Poul Joergensen,          Aarhus University,            Denmark     (RESPONS, ABACUS, and CC modules)
  Maciej Kaminski,          University of Warsaw,         Poland      (CPPh in RESPONS)
  Joanna Kauczor,           Linkoeping University,        Sweden      (Complex polarization propagator (CPP) module)
  Sheela Kirpekar,          Univ. of Southern Denmark,    Denmark     (Mass-velocity & Darwin integrals)
  Erik Kjellgren,           Univ. of Southern Denmark,    Denmark     (MC-srDFT)
  Wim Klopper,              KIT Karlsruhe,                Germany     (R12 code in CC, SIRIUS, and ABACUS modules)
  Stefan Knecht,            ETH Zurich,                   Switzerland (Parallel CI and MCSCF, MC-srDFT)
  Rika Kobayashi,           Australian National Univ.,    Australia   (DIIS in CC, London in MCSCF)
  Henrik Koch,              NTNU,                         Norway      (CC module, Cholesky decomposition)
  Jacob Kongsted,           Univ. of Southern Denmark,    Denmark     (Polarizable embedding, polarizable density embedding, QM/MM)
  Andrea Ligabue,           University of Modena,         Italy       (CTOCD, AOSOPPA)
  Nanna H. List             Univ. of Southern Denmark,    Denmark     (Polarizable embedding)
  Ola B. Lutnaes,           University of Oslo,           Norway      (DFT Hessian)
  Juan I. Melo,             University of Buenos Aires,   Argentina   (LRESC, Relativistic Effects on NMR Shieldings)
  Kurt V. Mikkelsen,        University of Copenhagen,     Denmark     (MC-SCRF and QM/MM)
  Rolf H. Myhre,            NTNU,                         Norway      (Subsystems and CC3)
  Christian Neiss,          Univ. Erlangen-Nuernberg,     Germany     (CCSD(R12))
  Christian B. Nielsen,     University of Copenhagen,     Denmark     (QM/MM)
  Patrick Norman,           KTH Stockholm,                Sweden      (Cubic response and complex frequency response in RESPONS)
  Jeppe Olsen,              Aarhus University,            Denmark     (SIRIUS CI/density modules)
  Jogvan Magnus H. Olsen,   Aarhus University,            Denmark     (Polarizable embedding and polarizable density embedding)
  Anders Osted,             Copenhagen University,        Denmark     (QM/MM)
  Martin J. Packer,         University of Sheffield,      UK          (SOPPA)
  Filip Pawlowski,          Kazimierz Wielki University,  Poland      (CC3)
  Morten N. Pedersen,       Univ. of Southern Denmark,    Denmark     (Polarizable embedding)
  Thomas B. Pedersen,       University of Oslo,           Norway      (Cholesky decomposition)
  Patricio F. Provasi,      University of Northeastern,   Argentina   (Analysis of coupling constants in localized orbitals)
  Peter Reinholdt,          Univ. of Southern Denmark,    Denmark     (Polarizable embedding and polarizable density embedding)
  Zilvinas Rinkevicius,     KTH Stockholm,                Sweden      (open-shell DFT, ESR)
  Elias Rudberg,            KTH Stockholm,                Sweden      (DFT grid and basis info)
  Torgeir A. Ruden,         University of Oslo,           Norway      (Numerical derivatives in ABACUS)
  Kenneth Ruud,             UiT The Arctic U. of Norway,  Norway      (DALTON; ABACUS magnetic properties and much more)
  Pawel Salek,              KTH Stockholm,                Sweden      (DALTON; DFT code)
  Claire C. M. Samson       University of Karlsruhe       Germany     (Boys localization, r12 integrals in ERI)
  Alfredo Sanchez de Meras, University of Valencia,       Spain       (CC module, Cholesky decomposition)
  Trond Saue,               Paul Sabatier University,     France      (direct Fock matrix construction)
  Stephan P. A. Sauer,      University of Copenhagen,     Denmark     (SOPPA(CCSD), SOPPA prop., AOSOPPA, vibrational g-factors)
  Bernd Schimmelpfennig,    Forschungszentrum Karlsruhe,  Germany     (AMFI module)
  Anna K. Schnack-Petersen, University of Copenhagen,     Denmark     (RPA(D) and HRPA(D) properties in AOSOPPA)
  Kristian Sneskov,         Aarhus University,            Denmark     (Polarizable embedding, QM/MM)
  Arnfinn H. Steindal,      UiT The Arctic U. of Norway,  Norway      (parallel QM/MM, polarizable embedding)
  Casper Steinmann,         Aalborg University,           Denmark     (QFIT, polarizable embedding)
  K. O. Sylvester-Hvid,     University of Copenhagen,     Denmark     (MC-SCRF)
  Peter R. Taylor,          VLSCI/Univ. of Melbourne,     Australia   (Symmetry handling ABACUS, integral transformation)
  Andrew M. Teale,          University of Nottingham,     England     (DFT-AC, DFT-D)
  David P. Tew,             University of Bristol,        England     (CCSD(R12))
  Julien Toulouse,          Sorbonne Univ.,               France      (MC-srDFT)
  Olav Vahtras,             KTH Stockholm,                Sweden      (Triplet response, spin-orbit, ESR, TDDFT, open-shell DFT)
  Lucas Visscher,           Vrije Universiteit Amsterdam, Netherlands (Frozen density embedding)
  David J. Wilson,          La Trobe University,          Australia   (DFT Hessian and DFT magnetizabilities)
  Hans Agren,               KTH Stockholm,                Sweden      (SIRIUS module, RESPONS, MC-SCRF solvation)
 --------------------------------------------------------------------------------

     Date and time (Linux)  : Wed Jan 11 15:39:00 2023
     Host name              : cn019                                   

 * Work memory size             :    64000000 =  488.28 megabytes.

 * Directories for basis set searches:
   1) /gpfs/projects/rjh/adrian/fd_compare/dalton/hf/LiCl/dipole
   2) /gpfs/projects/rjh/adrian/dalton/build/basis


Compilation information
-----------------------

 Who compiled             | ahurtado
 Host                     | sn-mem
 System                   | Linux-3.10.0-1160.24.1.el7.x86_64
 CMake generator          | Unix Makefiles
 Processor                | x86_64
 64-bit integers          | OFF
 MPI                      | ON
 Fortran compiler         | /gpfs/software/intel/oneAPI/2021_4/mpi/2021.4.0/bi
                          | n/mpif90
 Fortran compiler version | GNU Fortran (GCC) 11.2.0
 C compiler               | /gpfs/software/intel/oneAPI/2021_4/mpi/2021.4.0/bi
                          | n/mpicc
 C compiler version       | gcc (GCC) 11.2.0
 C++ compiler             | /gpfs/software/intel/oneAPI/2021_4/mpi/2021.4.0/bi
                          | n/mpicxx
 C++ compiler version     | unknown
 BLAS                     | /gpfs/software/intel/oneAPI/2021_4/mkl/2021.4.0/li
                          | b/intel64/libmkl_gf_lp64.so;/gpfs/software/intel/o
                          | neAPI/2021_4/mkl/2021.4.0/lib/intel64/libmkl_seque
                          | ntial.so;/gpfs/software/intel/oneAPI/2021_4/mkl/20
                          | 21.4.0/lib/intel64/libmkl_core.so;/usr/lib64/libpt
                          | hread.so;/usr/lib64/libm.so
 LAPACK                   | /gpfs/software/intel/oneAPI/2021_4/mkl/2021.4.0/li
                          | b/intel64/libmkl_lapack95_lp64.a;/gpfs/software/in
                          | tel/oneAPI/2021_4/mkl/2021.4.0/lib/intel64/libmkl_
                          | gf_lp64.so
 Static linking           | OFF
 Last Git revision        | 66052b3af5ea7225e31178bf9a8b031913c72190
 Git branch               | (HEAD detached at Dalton2020.0)
 Configuration time       | 2023-01-11 13:33:37.731835

 * MPI parallel run using 20 processes.


   Content of the .dal input file
 ----------------------------------

**DALTON INPUT
.RUN RESPONSE
.DIRECT
**WAVE FUNCTIONS
.HF
**RESPONSE
*LINEAR
.DIPLEN
.FREQUENCIES
9
0.0 0.0136945625 0.027389125 0.0410836875 0.05477825 0.06847281250000001 0.082167375 0.0958619375 0.
**END OF DALTON INPUT


   Content of the .mol file
 ----------------------------

BASIS
d-aug-cc-pCVDZ
blah
blah
Atomtype=2 Atomic
Charge=3 Atoms=1
Li_a 0.000000000000 0.000000000000 0.000000000000
Charge=17 Atoms=1
Cl_a 0.000000000000 0.000000000000 3.818500000000


       *******************************************************************
       *********** Output from DALTON general input processing ***********
       *******************************************************************

 --------------------------------------------------------------------------------
   Overall default print level:    0
   Print level for DALTON.STAT:    1

    Parallel calculation using MPI
    AO-direct calculation (in sections where implemented)
    HERMIT 1- and 2-electron integral sections will be executed
    "Old" integral transformation used (limited to max 255 basis functions)
    Wave function sections will be executed (SIRIUS module)
    Dynamic molecular response properties section will be executed (RESPONSE module)
 --------------------------------------------------------------------------------


   ****************************************************************************
   *************** Output of molecule and basis set information ***************
   ****************************************************************************


    The two title cards from your ".mol" input:
    ------------------------------------------------------------------------
 1: blah                                                                    
 2: blah                                                                    
    ------------------------------------------------------------------------

  Atomic type no.    1
  --------------------
  Nuclear charge:   3.00000
  Number of symmetry independent centers:    1
  Number of basis sets to read;    2
  Basis set file used for this atomic type with Z =   3 :
     "/gpfs/projects/rjh/adrian/dalton/build/basis/aug-cc-pCVDZ"

  Atomic type no.    2
  --------------------
  Nuclear charge:  17.00000
  Number of symmetry independent centers:    1
  Number of basis sets to read;    2
  Basis set file used for this atomic type with Z =  17 :
     "/gpfs/projects/rjh/adrian/dalton/build/basis/aug-cc-pCVDZ"


                      SYMADD: Requested addition of symmetry
                      --------------------------------------

 Symmetry test threshold:  5.00E-06

@   The molecule is centered at center of mass and rotated
@   so principal axes of inertia are along coordinate axes.

 Symmetry class found: C(oo,v)        

 Symmetry Independent Centres             
 ----------------------------
Cl_a  17 :      0.00000000     0.00000000     0.63810184  Isotope  1
Li_a   3 :      0.00000000     0.00000000    -3.18039816  Isotope  1

 The following symmetry elements were found:   X  Y     


                         SYMGRP: Point group information
                         -------------------------------

@    Full point group is: C(oo,v)        
@    Represented as:      C2v

@  * The irrep name for each symmetry:    1: A1     2: B1     3: B2     4: A2 

   * The point group was generated by:

      Reflection in the yz-plane
      Reflection in the xz-plane

   * Group multiplication table

        |  E   C2z  Oxz  Oyz
   -----+--------------------
     E  |  E   C2z  Oxz  Oyz
    C2z | C2z   E   Oyz  Oxz
    Oxz | Oxz  Oyz   E   C2z
    Oyz | Oyz  Oxz  C2z   E 

   * Character table

        |  E   C2z  Oxz  Oyz
   -----+--------------------
    A1  |   1    1    1    1
    B1  |   1   -1    1   -1
    B2  |   1   -1   -1    1
    A2  |   1    1   -1   -1

   * Direct product table

        | A1   B1   B2   A2 
   -----+--------------------
    A1  | A1   B1   B2   A2 
    B1  | B1   A1   A2   B2 
    B2  | B2   A2   A1   B1 
    A2  | A2   B2   B1   A1 


                                 Isotopic Masses
                                 ---------------

                           Li_a        7.016005
                           Cl_a       34.968853

                       Total mass:    41.984858 amu
                       Natural abundance:  70.087 %

 Center-of-mass coordinates (a.u.):    0.000000    0.000000    0.000000
 Center-of-mass coordinates (Angs):    0.000000    0.000000    0.000000


  Atoms and basis sets
  --------------------

  Number of atom types :    2
  Total number of atoms:    2

  Basis set used is "d-aug-cc-pCVDZ" from the basis set library.

  label    atoms   charge   prim   cont     basis
  ----------------------------------------------------------------------
  Li          1    3.0000    48    36      [12s7p3d|6s5p3d]                                   
  Cl          1   17.0000    68    45      [15s11p4d|7s6p4d]                                  
  ----------------------------------------------------------------------
  total:      2   20.0000   116    81
  ----------------------------------------------------------------------
  Spherical harmonic basis used.

  Threshold for neglecting AO integrals:  1.00D-12


  Cartesian Coordinates (a.u.)
  ----------------------------

  Total number of coordinates:    6
  Li_a    :     1  x   0.0000000000    2  y   0.0000000000    3  z  -3.1803981612
  Cl_a    :     4  x   0.0000000000    5  y   0.0000000000    6  z   0.6381018388


  Symmetry Coordinates
  --------------------

  Number of coordinates in each symmetry:     2    2    2    0

  Symmetry  A1  ( 1)

    1   Li_a  z    3
    2   Cl_a  z    6

  Symmetry  B1  ( 2)

    3   Li_a  x    1
    4   Cl_a  x    4

  Symmetry  B2  ( 3)

    5   Li_a  y    2
    6   Cl_a  y    5


   Interatomic separations (in Angstrom):
   --------------------------------------

            Li_a        Cl_a  
            ------      ------
 Li_a  :    0.000000
 Cl_a  :    2.020663    0.000000


  Max    interatomic separation is    2.0207 Angstrom (    3.8185 Bohr)
  between atoms    2 and    1, "Cl_a  " and "Li_a  ".

  Min YX interatomic separation is    2.0207 Angstrom (    3.8185 Bohr)


  Bond distances (Angstrom):
  --------------------------

                  atom 1     atom 2       distance
                  ------     ------       --------
  bond distance:  Cl_a       Li_a         2.020663




 Principal moments of inertia (u*A**2) and principal axes
 --------------------------------------------------------

   IA       0.000000          0.000000    0.000000    1.000000
   IB      23.859781          0.000000    1.000000    0.000000
   IC      23.859781          1.000000    0.000000    0.000000


 Rotational constants
 --------------------

@    The molecule is linear.

               B =        21181.21 MHz     (    0.706529 cm-1)


@  Nuclear repulsion energy :   13.356029854655 Hartree


  Symmetry Orbitals
  -----------------

  Number of orbitals in each symmetry:          38   18   18    7


  Symmetry  A1 ( 1)

    1     Li_a     1s         1
    2     Li_a     1s         2
    3     Li_a     1s         3
    4     Li_a     1s         4
    5     Li_a     1s         5
    6     Li_a     1s         6
    7     Li_a     2pz        9
    8     Li_a     2pz       12
    9     Li_a     2pz       15
   10     Li_a     2pz       18
   11     Li_a     2pz       21
   12     Li_a     3d0       24
   13     Li_a     3d2+      26
   14     Li_a     3d0       29
   15     Li_a     3d2+      31
   16     Li_a     3d0       34
   17     Li_a     3d2+      36
   18     Cl_a     1s        37
   19     Cl_a     1s        38
   20     Cl_a     1s        39
   21     Cl_a     1s        40
   22     Cl_a     1s        41
   23     Cl_a     1s        42
   24     Cl_a     1s        43
   25     Cl_a     2pz       46
   26     Cl_a     2pz       49
   27     Cl_a     2pz       52
   28     Cl_a     2pz       55
   29     Cl_a     2pz       58
   30     Cl_a     2pz       61
   31     Cl_a     3d0       64
   32     Cl_a     3d2+      66
   33     Cl_a     3d0       69
   34     Cl_a     3d2+      71
   35     Cl_a     3d0       74
   36     Cl_a     3d2+      76
   37     Cl_a     3d0       79
   38     Cl_a     3d2+      81


  Symmetry  B1 ( 2)

   39     Li_a     2px        7
   40     Li_a     2px       10
   41     Li_a     2px       13
   42     Li_a     2px       16
   43     Li_a     2px       19
   44     Li_a     3d1+      25
   45     Li_a     3d1+      30
   46     Li_a     3d1+      35
   47     Cl_a     2px       44
   48     Cl_a     2px       47
   49     Cl_a     2px       50
   50     Cl_a     2px       53
   51     Cl_a     2px       56
   52     Cl_a     2px       59
   53     Cl_a     3d1+      65
   54     Cl_a     3d1+      70
   55     Cl_a     3d1+      75
   56     Cl_a     3d1+      80


  Symmetry  B2 ( 3)

   57     Li_a     2py        8
   58     Li_a     2py       11
   59     Li_a     2py       14
   60     Li_a     2py       17
   61     Li_a     2py       20
   62     Li_a     3d1-      23
   63     Li_a     3d1-      28
   64     Li_a     3d1-      33
   65     Cl_a     2py       45
   66     Cl_a     2py       48
   67     Cl_a     2py       51
   68     Cl_a     2py       54
   69     Cl_a     2py       57
   70     Cl_a     2py       60
   71     Cl_a     3d1-      63
   72     Cl_a     3d1-      68
   73     Cl_a     3d1-      73
   74     Cl_a     3d1-      78


  Symmetry  A2 ( 4)

   75     Li_a     3d2-      22
   76     Li_a     3d2-      27
   77     Li_a     3d2-      32
   78     Cl_a     3d2-      62
   79     Cl_a     3d2-      67
   80     Cl_a     3d2-      72
   81     Cl_a     3d2-      77

  Symmetries of electric field:  B1 (2)  B2 (3)  A1 (1)

  Symmetries of magnetic field:  B2 (3)  B1 (2)  A2 (4)


                     .---------------------------------------.
                     | Starting in Integral Section (HERMIT) |
                     `---------------------------------------'



 ***************************************************************************************
 ****************** Output from **INTEGRALS input processing (HERMIT) ******************
 ***************************************************************************************


 - Using defaults, no **INTEGRALS input found

 Default print level:        1

 Calculation of one-electron Hamiltonian integrals.

 Center of mass  (bohr):      0.000000000000      0.000000000000      0.000000000000
 Operator center (bohr):      0.000000000000      0.000000000000      0.000000000000
 Gauge origin    (bohr):      0.000000000000      0.000000000000      0.000000000000
 Dipole origin   (bohr):      0.000000000000      0.000000000000      0.000000000000


     ************************************************************************
     ************************** Output from HERINT **************************
     ************************************************************************



                      Nuclear contribution to dipole moments
                      --------------------------------------

                 au               Debye          C m (/(10**-30)

      z      1.30653678         3.32088503        11.07728009


  Total CPU  time used in HERMIT:   0.13 seconds
  Total wall time used in HERMIT:   0.14 seconds


                        .----------------------------------.
                        | End of Integral Section (HERMIT) |
                        `----------------------------------'



                   .--------------------------------------------.
                   | Starting in Wave Function Section (SIRIUS) |
                   `--------------------------------------------'


 *** Output from Huckel module :

     Using EWMO model:          T
     Using EHT  model:          F
     Number of Huckel orbitals each symmetry:   10    4    4    1

 EWMO - Energy Weighted Maximum Overlap - is a Huckel type method,
        which normally is better than Extended Huckel Theory.
 Reference: Linderberg and Ohrn, Propagators in Quantum Chemistry (Wiley, 1973)

 Huckel EWMO eigenvalues for symmetry :  1
         -104.883964     -10.609452      -8.072241      -2.486708      -1.123908
           -0.513960      -0.171611      -0.085660      -0.055556      -0.054851

 Huckel EWMO eigenvalues for symmetry :  2
           -8.072216      -0.518935      -0.119286      -0.053719

 Huckel EWMO eigenvalues for symmetry :  3
           -8.072216      -0.518935      -0.119286      -0.053719

 Huckel EWMO eigenvalues for symmetry :  4
           -0.055556

 **********************************************************************
 *SIRIUS* a direct, restricted step, second order MCSCF program       *
 **********************************************************************

 
     Date and time (Linux)  : Wed Jan 11 15:39:00 2023
     Host name              : cn019                                   

 Title lines from ".mol" input file:
     blah                                                                    
     blah                                                                    

 Print level on unit LUPRI =   2 is   0
 Print level on unit LUW4  =   2 is   5

@    Restricted, closed shell Hartree-Fock calculation.

@    Time-dependent Hartree-Fock calculation (random phase approximation).
 Fock matrices are calculated directly and in parallel without use of integrals on disk.

 Initial molecular orbitals are obtained according to
 ".MOSTART EWMO  " input option

     Wave function specification
     ============================
@    Wave function type        --- HF ---
@    Number of closed shell electrons          20
@    Number of electrons in active shells       0
@    Total charge of the molecule               0

@    Spin multiplicity and 2 M_S                1         0
@    Total number of symmetries                 4 (point group: C2v)
@    Reference state symmetry                   1 (irrep name : A1 )

     Orbital specifications
     ======================
@    Abelian symmetry species          All |    1    2    3    4
@                                          |  A1   B1   B2   A2 
                                       --- |  ---  ---  ---  ---
@    Total number of orbitals           81 |   38   18   18    7
@    Number of basis functions          81 |   38   18   18    7

      ** Automatic occupation of RHF orbitals **

      -- Initial occupation of symmetries is determined from extended Huckel guess.           
      -- Initial occupation of symmetries is :
@    Occupied SCF orbitals              10 |    6    2    2    0

     Maximum number of Fock   iterations      0
     Maximum number of DIIS   iterations     60
     Maximum number of QC-SCF iterations     60
     Threshold for SCF convergence     1.00D-05


 ***********************************************
 ***** DIIS acceleration of SCF iterations *****
 ***********************************************

 C1-DIIS algorithm; max error vectors =    8

 Automatic occupation of symmetries with  20 electrons.

 Iter     Total energy    Error norm  Delta(E)    SCF occupation
 -----------------------------------------------------------------------------
   1  Screening settings (-IFTHRS, JTDIIS, DIFDEN, times)   -7    1    T  6.82D-02  6.80D-02
@  1  -466.994323516       7.11D-01  -4.67D+02     6   2   2   0
      Virial theorem: -V/T =      1.997322
@    MULPOP   Li_a    0.74; Cl_a   -0.74; 
   1  Level shift: doubly occupied orbital energies shifted by -2.00D-01
 -----------------------------------------------------------------------------
   2  Screening settings (-IFTHRS, JTDIIS, DIFDEN, times)   -7    2    T  4.83D-02  4.80D-02
@  2  -467.034795452       2.29D-01  -4.05D-02     6   2   2   0
      Virial theorem: -V/T =      2.000933
@    MULPOP   Li_a    0.27; Cl_a   -0.27; 
   2  Level shift: doubly occupied orbital energies shifted by -1.00D-01
 -----------------------------------------------------------------------------
   3  Screening settings (-IFTHRS, JTDIIS, DIFDEN, times)   -7    3    T  4.45D-02  4.40D-02
@  3  -467.038255553       5.55D-02  -3.46D-03     6   2   2   0
      Virial theorem: -V/T =      1.999988
@    MULPOP   Li_a    0.17; Cl_a   -0.17; 
   3  Level shift: doubly occupied orbital energies shifted by -2.50D-02
 -----------------------------------------------------------------------------
   4  Screening settings (-IFTHRS, JTDIIS, DIFDEN, times)  -11    4    F  4.51D-02  4.50D-02
@  4  -467.038972724       1.72D-02  -7.17D-04     6   2   2   0
      Virial theorem: -V/T =      2.000043
@    MULPOP   Li_a    0.14; Cl_a   -0.14; 
   4  Level shift: doubly occupied orbital energies shifted by -1.25D-02
 -----------------------------------------------------------------------------
   5  Screening settings (-IFTHRS, JTDIIS, DIFDEN, times)  -11    5    T  4.65D-02  4.60D-02
@  5  -467.039053782       4.57D-03  -8.11D-05     6   2   2   0
      Virial theorem: -V/T =      2.000048
@    MULPOP   Li_a    0.14; Cl_a   -0.14; 
 -----------------------------------------------------------------------------
   6  Screening settings (-IFTHRS, JTDIIS, DIFDEN, times)  -11    6    T  4.57D-02  4.60D-02
@  6  -467.039061032       1.13D-03  -7.25D-06     6   2   2   0
      Virial theorem: -V/T =      2.000059
@    MULPOP   Li_a    0.14; Cl_a   -0.14; 
 -----------------------------------------------------------------------------
   7  Screening settings (-IFTHRS, JTDIIS, DIFDEN, times)  -11    7    T  4.54D-02  4.50D-02
@  7  -467.039061440       2.30D-04  -4.08D-07     6   2   2   0
      Virial theorem: -V/T =      2.000057
@    MULPOP   Li_a    0.14; Cl_a   -0.14; 
 -----------------------------------------------------------------------------
   8  Screening settings (-IFTHRS, JTDIIS, DIFDEN, times)  -11    8    T  4.46D-02  4.40D-02
@  8  -467.039061450       5.55D-05  -1.00D-08     6   2   2   0
      Virial theorem: -V/T =      2.000058
@    MULPOP   Li_a    0.14; Cl_a   -0.14; 
 -----------------------------------------------------------------------------
   9  Screening settings (-IFTHRS, JTDIIS, DIFDEN, times)  -11    9    T  4.51D-02  4.50D-02
@  9  -467.039061451       1.16D-05  -5.17D-10     6   2   2   0
      Virial theorem: -V/T =      2.000058
@    MULPOP   Li_a    0.14; Cl_a   -0.14; 
 -----------------------------------------------------------------------------
  10  Screening settings (-IFTHRS, JTDIIS, DIFDEN, times)  -11   10    T  4.51D-02  4.50D-02
@ 10  -467.039061451       2.92D-06  -1.91D-11     6   2   2   0

@ *** DIIS converged in  10 iterations !
@     Converged SCF energy, gradient:   -467.039061450664    2.92D-06
    - total time used in SIRFCK :              0.00 seconds


 *** SCF orbital energy analysis ***

 Only the 20 lowest virtual orbital energies printed in each symmetry.

 Number of electrons :   20
 Orbital occupations :    6    2    2    0

 Sym       Hartree-Fock orbital energies

1 A1   -104.73120228   -10.45694120    -7.92337761    -2.48674170    -0.97461583
         -0.40950149    -0.01583969     0.00205905     0.00686633     0.01634249
          0.03111706     0.05673226     0.07389900     0.09547549     0.10291664
          0.13212484     0.22124668     0.22802294     0.25724694     0.25959477
          0.29375422     0.33364445     0.45970097     0.54969126     0.64210653
          0.66797082

2 B1     -7.92243557    -0.38031841     0.00312699     0.01197607     0.04699387
          0.05832029     0.13559489     0.15671344     0.23276102     0.35252692
          0.39590404     0.61382739     0.76063985     1.09534016     1.59115495
          5.71952286    12.58895719    16.15471360

3 B2     -7.92243557    -0.38031841     0.00312699     0.01197607     0.04699387
          0.05832029     0.13559489     0.15671344     0.23276102     0.35252692
          0.39590404     0.61382739     0.76063985     1.09534016     1.59115495
          5.71952286    12.58895719    16.15471360

4 A2      0.10291664     0.25959477     0.29375422     0.64210653     0.68095461
          1.57614177    16.15150118

    E(LUMO) :    -0.01583969 au (symmetry 1)
  - E(HOMO) :    -0.38031841 au (symmetry 3)
  ------------------------------------------
    gap     :     0.36447872 au

 --- Writing SIRIFC interface file

 CPU and wall time for SCF :       0.498       0.502


                       .-----------------------------------.
                       | --- Final results from SIRIUS --- |
                       `-----------------------------------'


@    Spin multiplicity:           1
@    Spatial symmetry:            1 ( irrep  A1  in C2v )
@    Total charge of molecule:    0

@    Final HF energy:            -467.039061450664                 
@    Nuclear repulsion:            13.356029854655
@    Electronic energy:          -480.395091305319

@    Final gradient norm:           0.000002924947

 
     Date and time (Linux)  : Wed Jan 11 15:39:01 2023
     Host name              : cn019                                   

File label for MO orbitals:  11Jan23   FOCKDIIS

 (Only coefficients > 0.0100 are printed.)

 Molecular orbitals for symmetry species 1  (A1 )
 ------------------------------------------------

    Orbital         1        2        3        4        5        6        7
   1 Li_a:1s     0.0001   0.0007   0.0009  -0.9880  -0.0173   0.0023   0.0294
   2 Li_a:1s     0.0002   0.0026   0.0030   0.0360   0.0884   0.3059  -0.1249
   3 Li_a:1s    -0.0004  -0.0078  -0.0005   0.0630   0.1267   0.3918  -0.3150
   4 Li_a:1s     0.0000   0.0005   0.0007   0.0055   0.0030   0.0113   0.0150
   5 Li_a:1s    -0.0001  -0.0018  -0.0004   0.0108   0.0289   0.0861  -0.4143
   6 Li_a:1s     0.0000   0.0003   0.0001  -0.0016  -0.0043  -0.0133  -0.0978
   8 Li_a:2pz    0.0003   0.0048   0.0020   0.0346   0.0686   0.2642   0.1668
   9 Li_a:2pz   -0.0002  -0.0044  -0.0002   0.0185   0.0380   0.1101   0.3514
  10 Li_a:2pz    0.0000   0.0003  -0.0001   0.0005   0.0031   0.0097   0.2372
  11 Li_a:2pz   -0.0000  -0.0001   0.0000  -0.0002  -0.0008  -0.0029  -0.0181
  12 Li_a:3d0    0.0001   0.0008   0.0002   0.0092   0.0158   0.0528  -0.0219
  14 Li_a:3d0    0.0002   0.0036   0.0003  -0.0035  -0.0089  -0.0160   0.0330
  16 Li_a:3d0   -0.0001  -0.0026  -0.0000   0.0067   0.0115   0.0314  -0.0484
  18 Cl_a:1s     0.9999   0.0004  -0.0001   0.0003  -0.0033  -0.0018   0.0002
  19 Cl_a:1s     0.0001   1.0043   0.0014   0.0020  -0.0227  -0.0142   0.0020
  20 Cl_a:1s     0.0007   0.0109  -0.0002  -0.0032   0.9257  -0.1143   0.0408
  21 Cl_a:1s    -0.0013  -0.0203  -0.0003  -0.0059   0.0487   0.0120   0.0050
  23 Cl_a:1s     0.0004   0.0086  -0.0031  -0.0601  -0.0860  -0.3897  -0.0112
  24 Cl_a:1s     0.0003   0.0059   0.0011  -0.0477  -0.1144  -0.3398  -0.0338
  25 Cl_a:2pz   -0.0001  -0.0015   0.9997  -0.0008   0.0020   0.0038   0.0001
  26 Cl_a:2pz   -0.0001  -0.0012  -0.0019   0.0045  -0.0299  -0.9069  -0.0578
  27 Cl_a:2pz    0.0003   0.0041   0.0019   0.0144  -0.0039   0.0235  -0.0102
  29 Cl_a:2pz   -0.0001  -0.0028   0.0004   0.0263   0.0744   0.1674  -0.0395
  30 Cl_a:2pz   -0.0000  -0.0006  -0.0001   0.0063   0.0115   0.0387  -0.0560
  33 Cl_a:3d0    0.0000   0.0002  -0.0001  -0.0017   0.0063   0.0155   0.0011
  35 Cl_a:3d0   -0.0001  -0.0011  -0.0004  -0.0041   0.0108   0.0228   0.0045
  37 Cl_a:3d0    0.0001   0.0015  -0.0003  -0.0044  -0.0182  -0.0398   0.0181

    Orbital         8        9       10       11       12       13       14
   1 Li_a:1s    -0.0085  -0.0019  -0.0431   0.0226   0.1326   0.1106  -0.0467
   2 Li_a:1s     0.0427   0.0551  -0.2401  -0.0586   0.3491   0.2099   0.0681
   3 Li_a:1s     0.4585   0.6527   0.7250   2.4264  -2.5782  -0.5429   9.6591
   4 Li_a:1s    -0.0043  -0.0004  -0.0203   0.0151   0.0636   0.0605  -0.0210
   5 Li_a:1s     0.9806   1.3916   1.0274   4.7732  -0.6625   1.0572   4.7395
   6 Li_a:1s    -0.9678  -1.3849  -0.6569  -1.3523   0.2895  -0.1429  -0.8493
   8 Li_a:2pz   -0.0431  -0.0347   0.0612   0.1821   0.0909   0.1287  -0.0745
   9 Li_a:2pz    0.1266   0.1536   0.5727   1.9781   0.1415  -0.9058   4.6463
  10 Li_a:2pz   -0.0502   0.3669  -1.6673   0.2721   0.7127   0.9183  -0.0682
  11 Li_a:2pz    0.8464  -0.7375   0.5582  -0.1296  -0.0448  -0.2424  -0.0102
  12 Li_a:3d0    0.0111   0.0168  -0.0183   0.0011   0.0291   0.2537  -0.0667
  14 Li_a:3d0   -0.0262  -0.0475   0.0262  -0.0855  -0.0653  -0.7143   0.1358
  16 Li_a:3d0    0.0639   0.0751   0.0709   0.2219   0.0113   0.7756   0.3771
  19 Cl_a:1s    -0.0024  -0.0013  -0.0023  -0.0094   0.0018   0.0276  -0.0309
  20 Cl_a:1s    -0.0167  -0.0090   0.0257  -0.0258   0.0225   0.1673  -0.0448
  21 Cl_a:1s     0.0125   0.0095   0.0315   0.0739   0.0107  -0.0956   0.2646
  23 Cl_a:1s    -0.1001  -0.0726  -0.1453  -0.5222  -0.0675   0.7363  -1.8376
  24 Cl_a:1s    -0.6389  -1.0527  -0.9703  -5.5732   1.8664  -1.5543 -12.4017
  26 Cl_a:2pz    0.0178   0.0191  -0.0255  -0.0249   0.0286  -0.0335   0.0960
  27 Cl_a:2pz    0.0028  -0.0025  -0.0085  -0.0305   0.0207  -0.0215  -0.0587
  29 Cl_a:2pz    0.0646   0.1187  -0.0876   0.4255   0.1189   0.2193   1.4270
  30 Cl_a:2pz    0.1132   0.2234   0.9892   1.0406  -2.5296  -0.2072   2.1391
  35 Cl_a:3d0   -0.0046  -0.0023   0.0081  -0.0102  -0.0404   0.0028  -0.0274
  37 Cl_a:3d0   -0.0012  -0.0200   0.0279  -0.0040   0.0691  -0.1684   0.0005

    Orbital        15       16
   1 Li_a:1s     0.0000  -0.2486
   2 Li_a:1s     0.0000  -0.6631
   3 Li_a:1s    -0.0000   1.4159
   4 Li_a:1s    -0.0000  -0.1426
   5 Li_a:1s    -0.0000   0.9414
   6 Li_a:1s     0.0000  -0.1574
   9 Li_a:2pz   -0.0000   3.3092
  10 Li_a:2pz    0.0000  -0.0285
  11 Li_a:2pz   -0.0000   0.0528
  12 Li_a:3d0    0.0000   0.4729
  13 Li_a:3d2+  -0.3959  -0.0000
  14 Li_a:3d0    0.0000  -1.2270
  15 Li_a:3d2+   1.2437   0.0000
  16 Li_a:3d0   -0.0000   3.0524
  17 Li_a:3d2+  -1.8895  -0.0000
  19 Cl_a:1s     0.0000  -0.0322
  20 Cl_a:1s     0.0000  -0.0974
  21 Cl_a:1s    -0.0000   0.2333
  23 Cl_a:1s     0.0000  -2.9203
  24 Cl_a:1s     0.0000  -0.8017
  26 Cl_a:2pz   -0.0000  -0.0714
  27 Cl_a:2pz   -0.0000   0.2370
  29 Cl_a:2pz    0.0000  -1.4677
  30 Cl_a:2pz   -0.0000  -0.8338
  33 Cl_a:3d0   -0.0000   0.0133
  35 Cl_a:3d0    0.0000  -0.1258
  36 Cl_a:3d2+  -0.0442  -0.0000
  37 Cl_a:3d0   -0.0000   0.5788
  38 Cl_a:3d2+   0.1710   0.0000

 Molecular orbitals for symmetry species 2  (B1 )
 ------------------------------------------------

    Orbital         1        2        3        4        5        6        7
   2 Li_a:2px    0.0002  -0.1022   0.0107   0.0366  -0.2008  -0.0895  -0.0398
   3 Li_a:2px   -0.0004  -0.0197   0.0892   0.2159  -0.9337  -1.4736  -2.6616
   4 Li_a:2px    0.0001  -0.0019  -0.0543   1.5289   1.1791  -0.6324  -0.1007
   5 Li_a:2px   -0.0000   0.0003   1.0342  -0.6882  -0.3119   0.0507  -0.0223
   6 Li_a:3d1+  -0.0002  -0.0338  -0.0073  -0.0078   0.1575   0.0289  -0.3021
   7 Li_a:3d1+   0.0009   0.0222   0.0169   0.0028  -0.4124  -0.0510   1.0075
   8 Li_a:3d1+  -0.0008  -0.0409  -0.0067  -0.0353   0.4411  -0.0706  -2.7551
   9 Cl_a:2px   -0.9999   0.0043  -0.0001   0.0004   0.0023  -0.0012   0.0072
  10 Cl_a:2px    0.0020  -0.9093  -0.0090  -0.0350   0.1192  -0.0199   0.0812
  11 Cl_a:2px   -0.0010  -0.0386   0.0004  -0.0121  -0.0169   0.0111  -0.1261
  13 Cl_a:2px    0.0009  -0.0059  -0.0327   0.0135   0.4429   0.1562   2.1707
  14 Cl_a:2px   -0.0001   0.0078  -0.0667  -0.6039  -0.8472   2.1589   1.2125
  16 Cl_a:3d1+   0.0001   0.0107   0.0002  -0.0003   0.0055  -0.0033  -0.0085
  17 Cl_a:3d1+   0.0001   0.0239  -0.0028  -0.0077   0.0200   0.0488   0.0250
  18 Cl_a:3d1+   0.0001  -0.0270   0.0150   0.0259  -0.1134  -0.2146  -0.3676

    Orbital         8        9       10       11       12
   1 Li_a:2px    0.0035  -0.0034   0.0009  -0.0208  -0.0006
   2 Li_a:2px    0.4855   0.5814  -0.3403   2.4819  -0.0803
   3 Li_a:2px   -1.0263   0.3095   1.0145   1.6256  -0.6152
   4 Li_a:2px    0.4819  -0.4484   0.1428  -0.1682  -0.2154
   5 Li_a:2px   -0.1275   0.0824  -0.0216   0.0548   0.0358
   6 Li_a:3d1+   0.4102  -0.1932   0.7317  -0.5635  -2.2785
   7 Li_a:3d1+  -1.6469   0.5775  -3.5143   1.4627   3.4000
   8 Li_a:3d1+   1.1701   0.3019   2.7453   0.7198  -1.7811
   9 Cl_a:2px    0.0011  -0.0141  -0.0193  -0.0034  -0.0137
  10 Cl_a:2px   -0.1949   0.1226   0.2111  -0.0925  -0.0982
  11 Cl_a:2px   -0.0764   0.3391   0.6733   0.0291   0.2150
  13 Cl_a:2px    0.9019  -2.2027  -1.1157  -3.3157   0.2313
  14 Cl_a:2px   -0.2609   0.9122  -0.5095  -0.2187   0.6058
  15 Cl_a:3d1+  -0.0016  -0.0025   0.0028   0.0006   0.0101
  16 Cl_a:3d1+  -0.0428  -0.0646   0.0575   0.0423   0.1603
  17 Cl_a:3d1+   0.0697   0.0416   0.0352  -0.2587   0.4504
  18 Cl_a:3d1+  -0.6628  -0.2655  -0.0606   2.2887  -0.4988

 Molecular orbitals for symmetry species 3  (B2 )
 ------------------------------------------------

    Orbital         1        2        3        4        5        6        7
   2 Li_a:2py    0.0002  -0.1022   0.0107   0.0366  -0.2008  -0.0895  -0.0398
   3 Li_a:2py   -0.0004  -0.0197   0.0892   0.2159  -0.9337  -1.4736  -2.6616
   4 Li_a:2py    0.0001  -0.0019  -0.0543   1.5289   1.1791  -0.6324  -0.1007
   5 Li_a:2py   -0.0000   0.0003   1.0342  -0.6882  -0.3119   0.0507  -0.0223
   6 Li_a:3d1-  -0.0002  -0.0338  -0.0073  -0.0078   0.1575   0.0289  -0.3021
   7 Li_a:3d1-   0.0009   0.0222   0.0169   0.0028  -0.4124  -0.0510   1.0075
   8 Li_a:3d1-  -0.0008  -0.0409  -0.0067  -0.0353   0.4411  -0.0706  -2.7551
   9 Cl_a:2py   -0.9999   0.0043  -0.0001   0.0004   0.0023  -0.0012   0.0072
  10 Cl_a:2py    0.0020  -0.9093  -0.0090  -0.0350   0.1192  -0.0199   0.0812
  11 Cl_a:2py   -0.0010  -0.0386   0.0004  -0.0121  -0.0169   0.0111  -0.1261
  13 Cl_a:2py    0.0009  -0.0059  -0.0327   0.0135   0.4429   0.1562   2.1707
  14 Cl_a:2py   -0.0001   0.0078  -0.0667  -0.6039  -0.8472   2.1589   1.2125
  16 Cl_a:3d1-   0.0001   0.0107   0.0002  -0.0003   0.0055  -0.0033  -0.0085
  17 Cl_a:3d1-   0.0001   0.0239  -0.0028  -0.0077   0.0200   0.0488   0.0250
  18 Cl_a:3d1-   0.0001  -0.0270   0.0150   0.0259  -0.1134  -0.2146  -0.3676

    Orbital         8        9       10       11       12
   1 Li_a:2py    0.0035   0.0034   0.0009  -0.0208  -0.0006
   2 Li_a:2py    0.4855  -0.5814  -0.3403   2.4819  -0.0803
   3 Li_a:2py   -1.0263  -0.3095   1.0145   1.6256  -0.6152
   4 Li_a:2py    0.4819   0.4484   0.1428  -0.1682  -0.2154
   5 Li_a:2py   -0.1275  -0.0824  -0.0216   0.0548   0.0358
   6 Li_a:3d1-   0.4102   0.1932   0.7317  -0.5635  -2.2785
   7 Li_a:3d1-  -1.6469  -0.5775  -3.5143   1.4627   3.4000
   8 Li_a:3d1-   1.1701  -0.3019   2.7453   0.7198  -1.7811
   9 Cl_a:2py    0.0011   0.0141  -0.0193  -0.0034  -0.0137
  10 Cl_a:2py   -0.1949  -0.1226   0.2111  -0.0925  -0.0982
  11 Cl_a:2py   -0.0764  -0.3391   0.6733   0.0291   0.2150
  13 Cl_a:2py    0.9019   2.2027  -1.1157  -3.3157   0.2313
  14 Cl_a:2py   -0.2609  -0.9122  -0.5095  -0.2187   0.6058
  15 Cl_a:3d1-  -0.0016   0.0025   0.0028   0.0006   0.0101
  16 Cl_a:3d1-  -0.0428   0.0646   0.0575   0.0423   0.1603
  17 Cl_a:3d1-   0.0697  -0.0416   0.0352  -0.2587   0.4504
  18 Cl_a:3d1-  -0.6628   0.2655  -0.0606   2.2887  -0.4988

 Molecular orbitals for symmetry species 4  (A2 )
 ------------------------------------------------

    Orbital         1        2        3        4        5        6        7
   1 Li_a:3d2-  -0.3959  -0.1127  -0.7876  -2.4221  -1.8034  -0.0304   0.0026
   2 Li_a:3d2-   1.2437   0.2724   3.1609   3.4508   2.0845  -0.1606   0.0142
   3 Li_a:3d2-  -1.8895   0.5612  -1.9126  -1.6191  -0.5399   0.2773  -0.0263
   4 Cl_a:3d2-  -0.0004  -0.0033   0.0015  -0.0079   0.0106  -0.0445  -1.0022
   5 Cl_a:3d2-  -0.0023  -0.0989   0.0313  -0.1015   0.1239  -1.2953   0.1649
   6 Cl_a:3d2-  -0.0442   0.1740   0.0091  -0.6315   0.9723   1.2078  -0.1074
   7 Cl_a:3d2-   0.1710  -1.3983  -0.1181   0.4382  -0.6618  -0.5058   0.0468

  Total CPU  time used in SIRIUS :   0.51 seconds
  Total wall time used in SIRIUS :   0.52 seconds

 
     Date and time (Linux)  : Wed Jan 11 15:39:01 2023
     Host name              : cn019                                   


                     .---------------------------------------.
                     | End of Wave Function Section (SIRIUS) |
                     `---------------------------------------'



                 .------------------------------------------------.
                 | Starting in Dynamic Property Section (RESPONS) |
                 `------------------------------------------------'


 ----------------------------------------------------------------------------------------
  RESPONSE  -  an MCSCF, MC-srDFT, DFT, SOPPA and SOPPA-srDFT response property program
 ----------------------------------------------------------------------------------------


 -------- OUTPUT FROM RESPONSE INPUT PROCESSING --------




 Linear Response calculation
 ---------------------------

 Print level                                    : IPRLR  =   2
 Maximum number of iterations                   : MAXITL =  60
 Threshold for relative convergence             : THCLR  = 1.000D-03
 Maximum iterations in optimal orbital algorithm: MAXITO =   5

  9 B-frequencies  0.000000D+00  1.369456D-02  2.738913D-02  4.108369D-02  5.477825D-02
  6.847281D-02  8.216738D-02  9.586194D-02  1.095565D-01

    1 second order properties calculated with symmetry no.    1 and labels:

          ZDIPLEN 

    1 second order properties calculated with symmetry no.    2 and labels:

          XDIPLEN 

    1 second order properties calculated with symmetry no.    3 and labels:

          YDIPLEN 


   SCF energy         :     -467.039061450664292
 -- inactive part     :     -480.395091305319283
 -- nuclear repulsion :       13.356029854654969


                     ***************************************
                     *** RHF response calculation (TDHF) ***
                     ***************************************

 ----------------------------------------------------------------
 ----- Linear response calculation
 ----- Symmetry of excitation/property operator(s)    1  ( A1 )
 ----------------------------------------------------------------

 Number of excitations of this symmetry            0
 Number of response properties of this symmetry    1
 Number of C6/C8 properties of this symmetry       0


 Perturbation symmetry.     KSYMOP:           1
 Perturbation spin symmetry.TRPLET:           F
 Orbital variables.         KZWOPT:         256
 Configuration variables.   KZCONF:           0
 Total number of variables. KZVAR :         256


 RSPLR -- linear response calculation for symmetry 1  ( A1 )
 RSPLR -- operator label : ZDIPLEN 
 RSPLR -- operator spin  :   0
 RSPLR -- frequencies    :     0.000000  0.013695  0.027389  0.041084  0.054778
                               0.068473  0.082167  0.095862  0.109557



 ---  SOLVING SETS OF LINEAR EQUATIONS FOR LINEAR RESPONSE PROPERTIES ---

 Operator symmetry = 1  ( A1 ); triplet =   F


 ** RSPCTL MICROITERATION NUMBER    1

       No.  Residual tot.,    conf., and orb.    Bnorm      Frequency 
      ----------------------------------------------------------------
         1    2.13479D+00  0.00D+00  2.13D+00  4.67D+00    0.00000D+00
         2    2.13648D+00  0.00D+00  2.14D+00  4.68D+00    1.36946D-02
         3    2.14157D+00  0.00D+00  2.14D+00  4.71D+00    2.73891D-02
         4    2.15019D+00  0.00D+00  2.15D+00  4.77D+00    4.10837D-02
         5    2.16251D+00  0.00D+00  2.16D+00  4.86D+00    5.47783D-02
         6    2.17883D+00  0.00D+00  2.18D+00  4.97D+00    6.84728D-02
         7    2.19953D+00  0.00D+00  2.20D+00  5.11D+00    8.21674D-02
         8    2.22518D+00  0.00D+00  2.23D+00  5.29D+00    9.58619D-02
         9    2.25654D+00  0.00D+00  2.26D+00  5.51D+00    1.09557D-01

 ** RSPCTL MICROITERATION NUMBER    2

       No.  Residual tot.,    conf., and orb.    Bnorm      Frequency 
      ----------------------------------------------------------------
         1    4.13143D-01  0.00D+00  4.13D-01  4.95D+00    0.00000D+00
         2    4.14064D-01  0.00D+00  4.14D-01  4.96D+00    1.36946D-02
         3    4.16858D-01  0.00D+00  4.17D-01  5.00D+00    2.73891D-02
         4    4.21615D-01  0.00D+00  4.22D-01  5.06D+00    4.10837D-02
         5    4.28494D-01  0.00D+00  4.28D-01  5.16D+00    5.47783D-02
         6    4.37738D-01  0.00D+00  4.38D-01  5.29D+00    6.84728D-02
         7    4.49696D-01  0.00D+00  4.50D-01  5.45D+00    8.21674D-02
         8    4.64861D-01  0.00D+00  4.65D-01  5.65D+00    9.58619D-02
         9    4.83932D-01  0.00D+00  4.84D-01  5.90D+00    1.09557D-01

 ** RSPCTL MICROITERATION NUMBER    3

       No.  Residual tot.,    conf., and orb.    Bnorm      Frequency 
      ----------------------------------------------------------------
         1    8.35269D-02  0.00D+00  8.35D-02  4.96D+00    0.00000D+00
         2    8.37754D-02  0.00D+00  8.38D-02  4.97D+00    1.36946D-02
         3    8.45293D-02  0.00D+00  8.45D-02  5.01D+00    2.73891D-02
         4    8.58147D-02  0.00D+00  8.58D-02  5.08D+00    4.10837D-02
         5    8.76774D-02  0.00D+00  8.77D-02  5.17D+00    5.47783D-02
         6    9.01874D-02  0.00D+00  9.02D-02  5.30D+00    6.84728D-02
         7    9.34457D-02  0.00D+00  9.34D-02  5.47D+00    8.21674D-02
         8    9.75953D-02  0.00D+00  9.76D-02  5.67D+00    9.58619D-02
         9    1.02839D-01  0.00D+00  1.03D-01  5.93D+00    1.09557D-01

 ** RSPCTL MICROITERATION NUMBER    4

       No.  Residual tot.,    conf., and orb.    Bnorm      Frequency 
      ----------------------------------------------------------------
         1    7.98638D-03  0.00D+00  7.99D-03  4.96D+00    0.00000D+00
         2    8.01014D-03  0.00D+00  8.01D-03  4.97D+00    1.36946D-02
         3    8.08226D-03  0.00D+00  8.08D-03  5.01D+00    2.73891D-02
         4    8.20533D-03  0.00D+00  8.21D-03  5.08D+00    4.10837D-02
         5    8.38393D-03  0.00D+00  8.38D-03  5.17D+00    5.47783D-02
         6    8.62512D-03  0.00D+00  8.63D-03  5.30D+00    6.84728D-02
         7    8.93914D-03  0.00D+00  8.94D-03  5.47D+00    8.21674D-02
         8    9.34069D-03  0.00D+00  9.34D-03  5.67D+00    9.58619D-02
         9    9.85099D-03  0.00D+00  9.85D-03  5.93D+00    1.09557D-01

 ** RSPCTL MICROITERATION NUMBER    5

       No.  Residual tot.,    conf., and orb.    Bnorm      Frequency 
      ----------------------------------------------------------------
         1    9.19421D-04  0.00D+00  9.19D-04  4.96D+00    0.00000D+00
         2    9.22979D-04  0.00D+00  9.23D-04  4.97D+00    1.36946D-02
         3    9.33763D-04  0.00D+00  9.34D-04  5.01D+00    2.73891D-02
         4    9.52111D-04  0.00D+00  9.52D-04  5.08D+00    4.10837D-02
         5    9.78618D-04  0.00D+00  9.79D-04  5.17D+00    5.47783D-02
         6    1.01419D-03  0.00D+00  1.01D-03  5.30D+00    6.84728D-02
         7    1.06011D-03  0.00D+00  1.06D-03  5.47D+00    8.21674D-02
         8    1.11823D-03  0.00D+00  1.12D-03  5.67D+00    9.58619D-02
         9    1.19116D-03  0.00D+00  1.19D-03  5.93D+00    1.09557D-01

 *** THE REQUESTED    9 SOLUTION VECTORS CONVERGED

 Convergence of RSP solution vectors, threshold = 1.00D-03
 ---------------------------------------------------------------
 (dimension of paired reduced space:   90)
 RSP solution vector no.    1; norm of residual   1.85D-04
 RSP solution vector no.    2; norm of residual   1.86D-04
 RSP solution vector no.    3; norm of residual   1.86D-04
 RSP solution vector no.    4; norm of residual   1.87D-04
 RSP solution vector no.    5; norm of residual   1.89D-04
 RSP solution vector no.    6; norm of residual   1.91D-04
 RSP solution vector no.    7; norm of residual   1.94D-04
 RSP solution vector no.    8; norm of residual   1.97D-04
 RSP solution vector no.    9; norm of residual   2.01D-04

 *** RSPCTL MICROITERATIONS CONVERGED


           Final output of second order properties from linear response
           ------------------------------------------------------------


@ Spin symmetry of operators: singlet

 Note that minus the linear response function: - << A; B >>(omega) is printed.
 The results are of quadratic accuracy using Sellers formula.

@ FREQUENCY INDEPENDENT SECOND ORDER PROPERTIES

@ -<< ZDIPLEN  ; ZDIPLEN  >> =  2.434191651648E+01

@ FREQUENCY DEPENDENT SECOND ORDER PROPERTIES WITH FREQUENCY :

@    a.u.:  1.3694563D-02
@    cm-1:  3.0056090D+03
@    eV  :  3.7264800D-01
@  kJ/mol:  3.5955068D+01
@    nm  :  3.3271127D+03

@ -<< ZDIPLEN  ; ZDIPLEN  >> =  2.437140377520E+01

@ FREQUENCY DEPENDENT SECOND ORDER PROPERTIES WITH FREQUENCY :

@    a.u.:  2.7389125D-02
@    cm-1:  6.0112181D+03
@    eV  :  7.4529600D-01
@  kJ/mol:  7.1910137D+01
@    nm  :  1.6635564D+03

@ -<< ZDIPLEN  ; ZDIPLEN  >> =  2.446051196719E+01

@ FREQUENCY DEPENDENT SECOND ORDER PROPERTIES WITH FREQUENCY :

@    a.u.:  4.1083688D-02
@    cm-1:  9.0168271D+03
@    eV  :  1.1179440D+00
@  kJ/mol:  1.0786520D+02
@    nm  :  1.1090376D+03

@ -<< ZDIPLEN  ; ZDIPLEN  >> =  2.461122430684E+01

@ FREQUENCY DEPENDENT SECOND ORDER PROPERTIES WITH FREQUENCY :

@    a.u.:  5.4778250D-02
@    cm-1:  1.2022436D+04
@    eV  :  1.4905920D+00
@  kJ/mol:  1.4382027D+02
@    nm  :  8.3177818D+02

@ -<< ZDIPLEN  ; ZDIPLEN  >> =  2.482699908576E+01

@ FREQUENCY DEPENDENT SECOND ORDER PROPERTIES WITH FREQUENCY :

@    a.u.:  6.8472813D-02
@    cm-1:  1.5028045D+04
@    eV  :  1.8632400D+00
@  kJ/mol:  1.7977534D+02
@    nm  :  6.6542254D+02

@ -<< ZDIPLEN  ; ZDIPLEN  >> =  2.511302303893E+01

@ FREQUENCY DEPENDENT SECOND ORDER PROPERTIES WITH FREQUENCY :

@    a.u.:  8.2167375D-02
@    cm-1:  1.8033654D+04
@    eV  :  2.2358880D+00
@  kJ/mol:  2.1573041D+02
@    nm  :  5.5451878D+02

@ -<< ZDIPLEN  ; ZDIPLEN  >> =  2.547662057560E+01

@ FREQUENCY DEPENDENT SECOND ORDER PROPERTIES WITH FREQUENCY :

@    a.u.:  9.5861937D-02
@    cm-1:  2.1039263D+04
@    eV  :  2.6085360D+00
@  kJ/mol:  2.5168548D+02
@    nm  :  4.7530182D+02

@ -<< ZDIPLEN  ; ZDIPLEN  >> =  2.592789166215E+01

@ FREQUENCY DEPENDENT SECOND ORDER PROPERTIES WITH FREQUENCY :

@    a.u.:  1.0955650D-01
@    cm-1:  2.4044872D+04
@    eV  :  2.9811840D+00
@  kJ/mol:  2.8764055D+02
@    nm  :  4.1588909D+02

@ -<< ZDIPLEN  ; ZDIPLEN  >> =  2.648070740112E+01


 Time used in linear response calculation is      0.62 CPU seconds for symmetry 1
 ----------------------------------------------------------------
 ----- Linear response calculation
 ----- Symmetry of excitation/property operator(s)    2  ( B1 )
 ----------------------------------------------------------------

 Number of excitations of this symmetry            0
 Number of response properties of this symmetry    1
 Number of C6/C8 properties of this symmetry       0


 Perturbation symmetry.     KSYMOP:           2
 Perturbation spin symmetry.TRPLET:           F
 Orbital variables.         KZWOPT:         174
 Configuration variables.   KZCONF:           0
 Total number of variables. KZVAR :         174


 RSPLR -- linear response calculation for symmetry 2  ( B1 )
 RSPLR -- operator label : XDIPLEN 
 RSPLR -- operator spin  :   0
 RSPLR -- frequencies    :     0.000000  0.013695  0.027389  0.041084  0.054778
                               0.068473  0.082167  0.095862  0.109557



 ---  SOLVING SETS OF LINEAR EQUATIONS FOR LINEAR RESPONSE PROPERTIES ---

 Operator symmetry = 2  ( B1 ); triplet =   F


 ** RSPCTL MICROITERATION NUMBER    1

       No.  Residual tot.,    conf., and orb.    Bnorm      Frequency 
      ----------------------------------------------------------------
         1    1.55143D+00  0.00D+00  1.55D+00  4.80D+00    0.00000D+00
         2    1.55244D+00  0.00D+00  1.55D+00  4.81D+00    1.36946D-02
         3    1.55547D+00  0.00D+00  1.56D+00  4.85D+00    2.73891D-02
         4    1.56061D+00  0.00D+00  1.56D+00  4.92D+00    4.10837D-02
         5    1.56796D+00  0.00D+00  1.57D+00  5.02D+00    5.47783D-02
         6    1.57771D+00  0.00D+00  1.58D+00  5.15D+00    6.84728D-02
         7    1.59014D+00  0.00D+00  1.59D+00  5.32D+00    8.21674D-02
         8    1.60561D+00  0.00D+00  1.61D+00  5.53D+00    9.58619D-02
         9    1.62472D+00  0.00D+00  1.62D+00  5.80D+00    1.09557D-01

 ** RSPCTL MICROITERATION NUMBER    2

       No.  Residual tot.,    conf., and orb.    Bnorm      Frequency 
      ----------------------------------------------------------------
         1    2.38708D-01  0.00D+00  2.39D-01  5.02D+00    0.00000D+00
         2    2.39019D-01  0.00D+00  2.39D-01  5.04D+00    1.36946D-02
         3    2.39964D-01  0.00D+00  2.40D-01  5.08D+00    2.73891D-02
         4    2.41583D-01  0.00D+00  2.42D-01  5.16D+00    4.10837D-02
         5    2.43952D-01  0.00D+00  2.44D-01  5.27D+00    5.47783D-02
         6    2.47185D-01  0.00D+00  2.47D-01  5.42D+00    6.84728D-02
         7    2.51464D-01  0.00D+00  2.51D-01  5.62D+00    8.21674D-02
         8    2.57064D-01  0.00D+00  2.57D-01  5.87D+00    9.58619D-02
         9    2.64417D-01  0.00D+00  2.64D-01  6.19D+00    1.09557D-01

 ** RSPCTL MICROITERATION NUMBER    3

       No.  Residual tot.,    conf., and orb.    Bnorm      Frequency 
      ----------------------------------------------------------------
         1    9.14327D-03  0.00D+00  9.14D-03  5.03D+00    0.00000D+00
         2    9.22807D-03  0.00D+00  9.23D-03  5.04D+00    1.36946D-02
         3    9.48493D-03  0.00D+00  9.48D-03  5.09D+00    2.73891D-02
         4    9.92160D-03  0.00D+00  9.92D-03  5.16D+00    4.10837D-02
         5    1.05527D-02  0.00D+00  1.06D-02  5.28D+00    5.47783D-02
         6    1.14021D-02  0.00D+00  1.14D-02  5.43D+00    6.84728D-02
         7    1.25076D-02  0.00D+00  1.25D-02  5.63D+00    8.21674D-02
         8    1.39271D-02  0.00D+00  1.39D-02  5.88D+00    9.58619D-02
         9    1.57508D-02  0.00D+00  1.58D-02  6.21D+00    1.09557D-01

 ** RSPCTL MICROITERATION NUMBER    4

       No.  Residual tot.,    conf., and orb.    Bnorm      Frequency 
      ----------------------------------------------------------------
         1    8.21879D-04  0.00D+00  8.22D-04  5.03D+00    0.00000D+00
         2    8.35718D-04  0.00D+00  8.36D-04  5.04D+00    1.36946D-02
         3    8.77894D-04  0.00D+00  8.78D-04  5.09D+00    2.73891D-02
         4    9.50496D-04  0.00D+00  9.50D-04  5.16D+00    4.10837D-02
         5    1.05737D-03  0.00D+00  1.06D-03  5.28D+00    5.47783D-02
         6    1.20469D-03  0.00D+00  1.20D-03  5.43D+00    6.84728D-02
         7    1.40189D-03  0.00D+00  1.40D-03  5.63D+00    8.21674D-02
         8    1.66313D-03  0.00D+00  1.66D-03  5.88D+00    9.58619D-02
         9    2.00989D-03  0.00D+00  2.01D-03  6.21D+00    1.09557D-01

 *** THE REQUESTED    9 SOLUTION VECTORS CONVERGED

 Convergence of RSP solution vectors, threshold = 1.00D-03
 ---------------------------------------------------------------
 (dimension of paired reduced space:   72)
 RSP solution vector no.    1; norm of residual   1.63D-04
 RSP solution vector no.    2; norm of residual   1.66D-04
 RSP solution vector no.    3; norm of residual   1.73D-04
 RSP solution vector no.    4; norm of residual   1.84D-04
 RSP solution vector no.    5; norm of residual   2.00D-04
 RSP solution vector no.    6; norm of residual   2.22D-04
 RSP solution vector no.    7; norm of residual   2.49D-04
 RSP solution vector no.    8; norm of residual   2.83D-04
 RSP solution vector no.    9; norm of residual   3.24D-04

 *** RSPCTL MICROITERATIONS CONVERGED


           Final output of second order properties from linear response
           ------------------------------------------------------------


@ Spin symmetry of operators: singlet

 Note that minus the linear response function: - << A; B >>(omega) is printed.
 The results are of quadratic accuracy using Sellers formula.

@ FREQUENCY INDEPENDENT SECOND ORDER PROPERTIES

@ -<< XDIPLEN  ; XDIPLEN  >> =  2.358864382172E+01

@ FREQUENCY DEPENDENT SECOND ORDER PROPERTIES WITH FREQUENCY :

@    a.u.:  1.3694563D-02
@    cm-1:  3.0056090D+03
@    eV  :  3.7264800D-01
@  kJ/mol:  3.5955068D+01
@    nm  :  3.3271127D+03

@ -<< XDIPLEN  ; XDIPLEN  >> =  2.361973842806E+01

@ FREQUENCY DEPENDENT SECOND ORDER PROPERTIES WITH FREQUENCY :

@    a.u.:  2.7389125D-02
@    cm-1:  6.0112181D+03
@    eV  :  7.4529600D-01
@  kJ/mol:  7.1910137D+01
@    nm  :  1.6635564D+03

@ -<< XDIPLEN  ; XDIPLEN  >> =  2.371385356676E+01

@ FREQUENCY DEPENDENT SECOND ORDER PROPERTIES WITH FREQUENCY :

@    a.u.:  4.1083688D-02
@    cm-1:  9.0168271D+03
@    eV  :  1.1179440D+00
@  kJ/mol:  1.0786520D+02
@    nm  :  1.1090376D+03

@ -<< XDIPLEN  ; XDIPLEN  >> =  2.387355784050E+01

@ FREQUENCY DEPENDENT SECOND ORDER PROPERTIES WITH FREQUENCY :

@    a.u.:  5.4778250D-02
@    cm-1:  1.2022436D+04
@    eV  :  1.4905920D+00
@  kJ/mol:  1.4382027D+02
@    nm  :  8.3177818D+02

@ -<< XDIPLEN  ; XDIPLEN  >> =  2.410339597761E+01

@ FREQUENCY DEPENDENT SECOND ORDER PROPERTIES WITH FREQUENCY :

@    a.u.:  6.8472813D-02
@    cm-1:  1.5028045D+04
@    eV  :  1.8632400D+00
@  kJ/mol:  1.7977534D+02
@    nm  :  6.6542254D+02

@ -<< XDIPLEN  ; XDIPLEN  >> =  2.441034198257E+01

@ FREQUENCY DEPENDENT SECOND ORDER PROPERTIES WITH FREQUENCY :

@    a.u.:  8.2167375D-02
@    cm-1:  1.8033654D+04
@    eV  :  2.2358880D+00
@  kJ/mol:  2.1573041D+02
@    nm  :  5.5451878D+02

@ -<< XDIPLEN  ; XDIPLEN  >> =  2.480457112387E+01

@ FREQUENCY DEPENDENT SECOND ORDER PROPERTIES WITH FREQUENCY :

@    a.u.:  9.5861937D-02
@    cm-1:  2.1039263D+04
@    eV  :  2.6085360D+00
@  kJ/mol:  2.5168548D+02
@    nm  :  4.7530182D+02

@ -<< XDIPLEN  ; XDIPLEN  >> =  2.530075478261E+01

@ FREQUENCY DEPENDENT SECOND ORDER PROPERTIES WITH FREQUENCY :

@    a.u.:  1.0955650D-01
@    cm-1:  2.4044872D+04
@    eV  :  2.9811840D+00
@  kJ/mol:  2.8764055D+02
@    nm  :  4.1588909D+02

@ -<< XDIPLEN  ; XDIPLEN  >> =  2.592028488192E+01


 Time used in linear response calculation is      0.49 CPU seconds for symmetry 2
 ----------------------------------------------------------------
 ----- Linear response calculation
 ----- Symmetry of excitation/property operator(s)    3  ( B2 )
 ----------------------------------------------------------------

 Number of excitations of this symmetry            0
 Number of response properties of this symmetry    1
 Number of C6/C8 properties of this symmetry       0


 Perturbation symmetry.     KSYMOP:           3
 Perturbation spin symmetry.TRPLET:           F
 Orbital variables.         KZWOPT:         174
 Configuration variables.   KZCONF:           0
 Total number of variables. KZVAR :         174


 RSPLR -- linear response calculation for symmetry 3  ( B2 )
 RSPLR -- operator label : YDIPLEN 
 RSPLR -- operator spin  :   0
 RSPLR -- frequencies    :     0.000000  0.013695  0.027389  0.041084  0.054778
                               0.068473  0.082167  0.095862  0.109557



 ---  SOLVING SETS OF LINEAR EQUATIONS FOR LINEAR RESPONSE PROPERTIES ---

 Operator symmetry = 3  ( B2 ); triplet =   F


 ** RSPCTL MICROITERATION NUMBER    1

       No.  Residual tot.,    conf., and orb.    Bnorm      Frequency 
      ----------------------------------------------------------------
         1    1.54076D+00  0.00D+00  1.54D+00  4.80D+00    0.00000D+00
         2    1.54179D+00  0.00D+00  1.54D+00  4.81D+00    1.36946D-02
         3    1.54489D+00  0.00D+00  1.54D+00  4.85D+00    2.73891D-02
         4    1.55015D+00  0.00D+00  1.55D+00  4.92D+00    4.10837D-02
         5    1.55769D+00  0.00D+00  1.56D+00  5.02D+00    5.47783D-02
         6    1.56771D+00  0.00D+00  1.57D+00  5.15D+00    6.84728D-02
         7    1.58051D+00  0.00D+00  1.58D+00  5.32D+00    8.21674D-02
         8    1.59653D+00  0.00D+00  1.60D+00  5.53D+00    9.58619D-02
         9    1.61639D+00  0.00D+00  1.62D+00  5.80D+00    1.09557D-01

 ** RSPCTL MICROITERATION NUMBER    2

       No.  Residual tot.,    conf., and orb.    Bnorm      Frequency 
      ----------------------------------------------------------------
         1    2.42656D-01  0.00D+00  2.43D-01  5.02D+00    0.00000D+00
         2    2.42982D-01  0.00D+00  2.43D-01  5.04D+00    1.36946D-02
         3    2.43974D-01  0.00D+00  2.44D-01  5.08D+00    2.73891D-02
         4    2.45674D-01  0.00D+00  2.46D-01  5.16D+00    4.10837D-02
         5    2.48158D-01  0.00D+00  2.48D-01  5.27D+00    5.47783D-02
         6    2.51546D-01  0.00D+00  2.52D-01  5.42D+00    6.84728D-02
         7    2.56023D-01  0.00D+00  2.56D-01  5.62D+00    8.21674D-02
         8    2.61867D-01  0.00D+00  2.62D-01  5.87D+00    9.58619D-02
         9    2.69510D-01  0.00D+00  2.70D-01  6.19D+00    1.09557D-01

 ** RSPCTL MICROITERATION NUMBER    3

       No.  Residual tot.,    conf., and orb.    Bnorm      Frequency 
      ----------------------------------------------------------------
         1    8.10112D-03  0.00D+00  8.10D-03  5.03D+00    0.00000D+00
         2    8.19109D-03  0.00D+00  8.19D-03  5.04D+00    1.36946D-02
         3    8.46288D-03  0.00D+00  8.46D-03  5.09D+00    2.73891D-02
         4    8.92280D-03  0.00D+00  8.92D-03  5.16D+00    4.10837D-02
         5    9.58337D-03  0.00D+00  9.58D-03  5.28D+00    5.47783D-02
         6    1.04663D-02  0.00D+00  1.05D-02  5.43D+00    6.84728D-02
         7    1.16068D-02  0.00D+00  1.16D-02  5.63D+00    8.21674D-02
         8    1.30602D-02  0.00D+00  1.31D-02  5.88D+00    9.58619D-02
         9    1.49125D-02  0.00D+00  1.49D-02  6.21D+00    1.09557D-01

 ** RSPCTL MICROITERATION NUMBER    4

       No.  Residual tot.,    conf., and orb.    Bnorm      Frequency 
      ----------------------------------------------------------------
         1    8.88225D-04  0.00D+00  8.88D-04  5.03D+00    0.00000D+00
         2    8.97735D-04  0.00D+00  8.98D-04  5.04D+00    1.36946D-02
         3    9.27008D-04  0.00D+00  9.27D-04  5.09D+00    2.73891D-02
         4    9.78327D-04  0.00D+00  9.78D-04  5.16D+00    4.10837D-02
         5    1.05570D-03  0.00D+00  1.06D-03  5.28D+00    5.47783D-02
         6    1.16520D-03  0.00D+00  1.17D-03  5.43D+00    6.84728D-02
         7    1.31561D-03  0.00D+00  1.32D-03  5.63D+00    8.21674D-02
         8    1.51957D-03  0.00D+00  1.52D-03  5.88D+00    9.58619D-02
         9    1.79556D-03  0.00D+00  1.80D-03  6.21D+00    1.09557D-01

 *** THE REQUESTED    9 SOLUTION VECTORS CONVERGED

 Convergence of RSP solution vectors, threshold = 1.00D-03
 ---------------------------------------------------------------
 (dimension of paired reduced space:   72)
 RSP solution vector no.    1; norm of residual   1.77D-04
 RSP solution vector no.    2; norm of residual   1.78D-04
 RSP solution vector no.    3; norm of residual   1.82D-04
 RSP solution vector no.    4; norm of residual   1.89D-04
 RSP solution vector no.    5; norm of residual   2.00D-04
 RSP solution vector no.    6; norm of residual   2.15D-04
 RSP solution vector no.    7; norm of residual   2.34D-04
 RSP solution vector no.    8; norm of residual   2.58D-04
 RSP solution vector no.    9; norm of residual   2.89D-04

 *** RSPCTL MICROITERATIONS CONVERGED


           Final output of second order properties from linear response
           ------------------------------------------------------------


@ Spin symmetry of operators: singlet

 Note that minus the linear response function: - << A; B >>(omega) is printed.
 The results are of quadratic accuracy using Sellers formula.

@ FREQUENCY INDEPENDENT SECOND ORDER PROPERTIES

@ -<< YDIPLEN  ; YDIPLEN  >> =  2.358864376176E+01

@ FREQUENCY DEPENDENT SECOND ORDER PROPERTIES WITH FREQUENCY :

@    a.u.:  1.3694563D-02
@    cm-1:  3.0056090D+03
@    eV  :  3.7264800D-01
@  kJ/mol:  3.5955068D+01
@    nm  :  3.3271127D+03

@ -<< YDIPLEN  ; YDIPLEN  >> =  2.361973836786E+01

@ FREQUENCY DEPENDENT SECOND ORDER PROPERTIES WITH FREQUENCY :

@    a.u.:  2.7389125D-02
@    cm-1:  6.0112181D+03
@    eV  :  7.4529600D-01
@  kJ/mol:  7.1910137D+01
@    nm  :  1.6635564D+03

@ -<< YDIPLEN  ; YDIPLEN  >> =  2.371385350589E+01

@ FREQUENCY DEPENDENT SECOND ORDER PROPERTIES WITH FREQUENCY :

@    a.u.:  4.1083688D-02
@    cm-1:  9.0168271D+03
@    eV  :  1.1179440D+00
@  kJ/mol:  1.0786520D+02
@    nm  :  1.1090376D+03

@ -<< YDIPLEN  ; YDIPLEN  >> =  2.387355777871E+01

@ FREQUENCY DEPENDENT SECOND ORDER PROPERTIES WITH FREQUENCY :

@    a.u.:  5.4778250D-02
@    cm-1:  1.2022436D+04
@    eV  :  1.4905920D+00
@  kJ/mol:  1.4382027D+02
@    nm  :  8.3177818D+02

@ -<< YDIPLEN  ; YDIPLEN  >> =  2.410339591502E+01

@ FREQUENCY DEPENDENT SECOND ORDER PROPERTIES WITH FREQUENCY :

@    a.u.:  6.8472813D-02
@    cm-1:  1.5028045D+04
@    eV  :  1.8632400D+00
@  kJ/mol:  1.7977534D+02
@    nm  :  6.6542254D+02

@ -<< YDIPLEN  ; YDIPLEN  >> =  2.441034192000E+01

@ FREQUENCY DEPENDENT SECOND ORDER PROPERTIES WITH FREQUENCY :

@    a.u.:  8.2167375D-02
@    cm-1:  1.8033654D+04
@    eV  :  2.2358880D+00
@  kJ/mol:  2.1573041D+02
@    nm  :  5.5451878D+02

@ -<< YDIPLEN  ; YDIPLEN  >> =  2.480457106353E+01

@ FREQUENCY DEPENDENT SECOND ORDER PROPERTIES WITH FREQUENCY :

@    a.u.:  9.5861937D-02
@    cm-1:  2.1039263D+04
@    eV  :  2.6085360D+00
@  kJ/mol:  2.5168548D+02
@    nm  :  4.7530182D+02

@ -<< YDIPLEN  ; YDIPLEN  >> =  2.530075472939E+01

@ FREQUENCY DEPENDENT SECOND ORDER PROPERTIES WITH FREQUENCY :

@    a.u.:  1.0955650D-01
@    cm-1:  2.4044872D+04
@    eV  :  2.9811840D+00
@  kJ/mol:  2.8764055D+02
@    nm  :  4.1588909D+02

@ -<< YDIPLEN  ; YDIPLEN  >> =  2.592028484601E+01


 Time used in linear response calculation is      0.50 CPU seconds for symmetry 3

  Total CPU  time used in RESPONSE:   1.62 seconds
  Total wall time used in RESPONSE:   1.66 seconds


                   .-------------------------------------------.
                   | End of Dynamic Property Section (RESPONS) |
                   `-------------------------------------------'

  Total CPU  time used in DALTON:   2.29 seconds
  Total wall time used in DALTON:   2.43 seconds

 
     Date and time (Linux)  : Wed Jan 11 15:39:02 2023
     Host name              : cn019                                   
