

     ************************************************************************
     *************** Dalton - An Electronic Structure Program ***************
     ************************************************************************

    This is output from DALTON release Dalton2020.0 (2020)
         ( Web site: http://daltonprogram.org )

   ----------------------------------------------------------------------------

    NOTE:
     
    Dalton is an experimental code for the evaluation of molecular
    properties using (MC)SCF, DFT, CI, and CC wave functions.
    The authors accept no responsibility for the performance of
    the code or for the correctness of the results.
     
    The code (in whole or part) is provided under a licence and
    is not to be reproduced for further distribution without
    the written permission of the authors or their representatives.
     
    See the home page "http://daltonprogram.org" for further information.
     
    If results obtained with this code are published,
    the appropriate citations would be both of:
     
       K. Aidas, C. Angeli, K. L. Bak, V. Bakken, R. Bast,
       L. Boman, O. Christiansen, R. Cimiraglia, S. Coriani,
       P. Dahle, E. K. Dalskov, U. Ekstroem,
       T. Enevoldsen, J. J. Eriksen, P. Ettenhuber, B. Fernandez,
       L. Ferrighi, H. Fliegl, L. Frediani, K. Hald, A. Halkier,
       C. Haettig, H. Heiberg, T. Helgaker, A. C. Hennum,
       H. Hettema, E. Hjertenaes, S. Hoest, I.-M. Hoeyvik,
       M. F. Iozzi, B. Jansik, H. J. Aa. Jensen, D. Jonsson,
       P. Joergensen, J. Kauczor, S. Kirpekar,
       T. Kjaergaard, W. Klopper, S. Knecht, R. Kobayashi, H. Koch,
       J. Kongsted, A. Krapp, K. Kristensen, A. Ligabue,
       O. B. Lutnaes, J. I. Melo, K. V. Mikkelsen, R. H. Myhre,
       C. Neiss, C. B. Nielsen, P. Norman, J. Olsen,
       J. M. H. Olsen, A. Osted, M. J. Packer, F. Pawlowski,
       T. B. Pedersen, P. F. Provasi, S. Reine, Z. Rinkevicius,
       T. A. Ruden, K. Ruud, V. Rybkin, P. Salek, C. C. M. Samson,
       A. Sanchez de Meras, T. Saue, S. P. A. Sauer,
       B. Schimmelpfennig, K. Sneskov, A. H. Steindal,
       K. O. Sylvester-Hvid, P. R. Taylor, A. M. Teale,
       E. I. Tellgren, D. P. Tew, A. J. Thorvaldsen, L. Thoegersen,
       O. Vahtras, M. A. Watson, D. J. D. Wilson, M. Ziolkowski
       and H. Agren,
       "The Dalton quantum chemistry program system",
       WIREs Comput. Mol. Sci. 2014, 4:269–284 (doi: 10.1002/wcms.1172)
     
    and
     
       Dalton, a molecular electronic structure program,
       Release Dalton2020.0 (2020), see http://daltonprogram.org
   ----------------------------------------------------------------------------

    Authors in alphabetical order (Major contribution(s) in parenthesis):

  Kestutis Aidas,           Vilnius University,           Lithuania   (QM/MM)
  Celestino Angeli,         University of Ferrara,        Italy       (NEVPT2)
  Keld L. Bak,              UNI-C,                        Denmark     (AOSOPPA, non-adiabatic coupling, magnetic properties)
  Vebjoern Bakken,          University of Oslo,           Norway      (DALTON; geometry optimizer, symmetry detection)
  Radovan Bast,             UiT The Arctic U. of Norway,  Norway      (DALTON installation and execution frameworks)
  Pablo Baudin,             University of Valencia,       Spain       (Cholesky excitation energies)
  Linus Boman,              NTNU,                         Norway      (Cholesky decomposition and subsystems)
  Bruno N. Cabral Tenorio,  Technical Univ. of Denmark,   Denmark     (Lanczos-based CC methods)
  Ove Christiansen,         Aarhus University,            Denmark     (CC module)
  Renzo Cimiraglia,         University of Ferrara,        Italy       (NEVPT2)
  Sonia Coriani,            Technical Univ. of Denmark,   Denmark     (CC and RESPONS modules)
  Janusz Cukras,            University of Warsaw,         Poland      (MChD in RESPONS)
  Paal Dahle,               University of Oslo,           Norway      (Parallelization)
  Erik K. Dalskov,          UNI-C,                        Denmark     (SOPPA)
  Thomas Enevoldsen,        Univ. of Southern Denmark,    Denmark     (SOPPA)
  Janus J. Eriksen,         Aarhus University,            Denmark     (Polarizable embedding, TDA)
  Rasmus Faber,             Technical Univ. of Denmark,   Denmark     (Vib.avg. NMR w. SOPPA, parallel AO-SOPPA, CVS-CC and EOMCC)
  Tobias Fahleson,          KTH Stockholm,                Sweden      (Damped cubic response)
  Berta Fernandez,          U. of Santiago de Compostela, Spain       (Doublet spin, ESR in RESPONS)
  Lara Ferrighi,            Aarhus University,            Denmark     (PCM Cubic response)
  Heike Fliegl,             University of Oslo,           Norway      (CCSD(R12))
  Luca Frediani,            UiT The Arctic U. of Norway,  Norway      (PCM)
  Emmanuel Fromager,        Univ. Strasbourg,             France      (MC-srDFT)
  Bin Gao,                  UiT The Arctic U. of Norway,  Norway      (Gen1Int library)
  Andre S. P. Gomes,        CNRS/Universite de Lille,     France      (Frozen density embedding)
  Christof Haettig,         Ruhr-University Bochum,       Germany     (CC module)
  Kasper Hald,              Aarhus University,            Denmark     (CC module)
  Asger Halkier,            Aarhus University,            Denmark     (CC module)
  Frederik Beyer Hansen,    University of Copenhagen,     Denmark     (Parallel AO-SOPPA)
  Erik D. Hedegaard,        Univ. of Southern Denmark,    Denmark     (Polarizable embedding, QM/MM, and MC-srDFT)
  Hanne Heiberg,            University of Oslo,           Norway      (Geometry analysis, selected one-electron integrals)
  Trygve Helgaker,          University of Oslo,           Norway      (DALTON; ABACUS, ERI, DFT modules, London, and much more)
  Alf Christian Hennum,     University of Oslo,           Norway      (Parity violation)
  Hinne Hettema,            University of Auckland,       New Zealand (Quadratic response in RESPONS; SIRIUS supersymmetry)
  Eirik Hjertenaes,         NTNU,                         Norway      (Cholesky decomposition)
  Pi A. B. Haase,           University of Copenhagen,     Denmark     (Triplet AO-SOPPA)
  Maria Francesca Iozzi,    University of Oslo,           Norway      (RPA)
  Christoph Jacob           TU Braunschweig               Germany     (Frozen density embedding)
  Brano Jansik              Technical Univ. of Ostrava    Czech Rep.  (DFT cubic response)
  Hans Joergen Aa. Jensen,  Univ. of Southern Denmark,    Denmark     (DALTON; SIRIUS, RESPONS, ABACUS, MC-srDFT, and much more)
  Dan Jonsson,              UiT The Arctic U. of Norway,  Norway      (Cubic response in RESPONS module)
  Poul Joergensen,          Aarhus University,            Denmark     (RESPONS, ABACUS, and CC modules)
  Maciej Kaminski,          University of Warsaw,         Poland      (CPPh in RESPONS)
  Joanna Kauczor,           Linkoeping University,        Sweden      (Complex polarization propagator (CPP) module)
  Sheela Kirpekar,          Univ. of Southern Denmark,    Denmark     (Mass-velocity & Darwin integrals)
  Erik Kjellgren,           Univ. of Southern Denmark,    Denmark     (MC-srDFT)
  Wim Klopper,              KIT Karlsruhe,                Germany     (R12 code in CC, SIRIUS, and ABACUS modules)
  Stefan Knecht,            ETH Zurich,                   Switzerland (Parallel CI and MCSCF, MC-srDFT)
  Rika Kobayashi,           Australian National Univ.,    Australia   (DIIS in CC, London in MCSCF)
  Henrik Koch,              NTNU,                         Norway      (CC module, Cholesky decomposition)
  Jacob Kongsted,           Univ. of Southern Denmark,    Denmark     (Polarizable embedding, polarizable density embedding, QM/MM)
  Andrea Ligabue,           University of Modena,         Italy       (CTOCD, AOSOPPA)
  Nanna H. List             Univ. of Southern Denmark,    Denmark     (Polarizable embedding)
  Ola B. Lutnaes,           University of Oslo,           Norway      (DFT Hessian)
  Juan I. Melo,             University of Buenos Aires,   Argentina   (LRESC, Relativistic Effects on NMR Shieldings)
  Kurt V. Mikkelsen,        University of Copenhagen,     Denmark     (MC-SCRF and QM/MM)
  Rolf H. Myhre,            NTNU,                         Norway      (Subsystems and CC3)
  Christian Neiss,          Univ. Erlangen-Nuernberg,     Germany     (CCSD(R12))
  Christian B. Nielsen,     University of Copenhagen,     Denmark     (QM/MM)
  Patrick Norman,           KTH Stockholm,                Sweden      (Cubic response and complex frequency response in RESPONS)
  Jeppe Olsen,              Aarhus University,            Denmark     (SIRIUS CI/density modules)
  Jogvan Magnus H. Olsen,   Aarhus University,            Denmark     (Polarizable embedding and polarizable density embedding)
  Anders Osted,             Copenhagen University,        Denmark     (QM/MM)
  Martin J. Packer,         University of Sheffield,      UK          (SOPPA)
  Filip Pawlowski,          Kazimierz Wielki University,  Poland      (CC3)
  Morten N. Pedersen,       Univ. of Southern Denmark,    Denmark     (Polarizable embedding)
  Thomas B. Pedersen,       University of Oslo,           Norway      (Cholesky decomposition)
  Patricio F. Provasi,      University of Northeastern,   Argentina   (Analysis of coupling constants in localized orbitals)
  Peter Reinholdt,          Univ. of Southern Denmark,    Denmark     (Polarizable embedding and polarizable density embedding)
  Zilvinas Rinkevicius,     KTH Stockholm,                Sweden      (open-shell DFT, ESR)
  Elias Rudberg,            KTH Stockholm,                Sweden      (DFT grid and basis info)
  Torgeir A. Ruden,         University of Oslo,           Norway      (Numerical derivatives in ABACUS)
  Kenneth Ruud,             UiT The Arctic U. of Norway,  Norway      (DALTON; ABACUS magnetic properties and much more)
  Pawel Salek,              KTH Stockholm,                Sweden      (DALTON; DFT code)
  Claire C. M. Samson       University of Karlsruhe       Germany     (Boys localization, r12 integrals in ERI)
  Alfredo Sanchez de Meras, University of Valencia,       Spain       (CC module, Cholesky decomposition)
  Trond Saue,               Paul Sabatier University,     France      (direct Fock matrix construction)
  Stephan P. A. Sauer,      University of Copenhagen,     Denmark     (SOPPA(CCSD), SOPPA prop., AOSOPPA, vibrational g-factors)
  Bernd Schimmelpfennig,    Forschungszentrum Karlsruhe,  Germany     (AMFI module)
  Anna K. Schnack-Petersen, University of Copenhagen,     Denmark     (RPA(D) and HRPA(D) properties in AOSOPPA)
  Kristian Sneskov,         Aarhus University,            Denmark     (Polarizable embedding, QM/MM)
  Arnfinn H. Steindal,      UiT The Arctic U. of Norway,  Norway      (parallel QM/MM, polarizable embedding)
  Casper Steinmann,         Aalborg University,           Denmark     (QFIT, polarizable embedding)
  K. O. Sylvester-Hvid,     University of Copenhagen,     Denmark     (MC-SCRF)
  Peter R. Taylor,          VLSCI/Univ. of Melbourne,     Australia   (Symmetry handling ABACUS, integral transformation)
  Andrew M. Teale,          University of Nottingham,     England     (DFT-AC, DFT-D)
  David P. Tew,             University of Bristol,        England     (CCSD(R12))
  Julien Toulouse,          Sorbonne Univ.,               France      (MC-srDFT)
  Olav Vahtras,             KTH Stockholm,                Sweden      (Triplet response, spin-orbit, ESR, TDDFT, open-shell DFT)
  Lucas Visscher,           Vrije Universiteit Amsterdam, Netherlands (Frozen density embedding)
  David J. Wilson,          La Trobe University,          Australia   (DFT Hessian and DFT magnetizabilities)
  Hans Agren,               KTH Stockholm,                Sweden      (SIRIUS module, RESPONS, MC-SCRF solvation)
 --------------------------------------------------------------------------------

     Date and time (Linux)  : Wed Jan 11 14:14:54 2023
     Host name              : cn021                                   

 * Work memory size             :    64000000 =  488.28 megabytes.

 * Directories for basis set searches:
   1) /gpfs/projects/rjh/adrian/fd_compare/dalton/hf/Ar/dipole
   2) /gpfs/projects/rjh/adrian/dalton/build/basis


Compilation information
-----------------------

 Who compiled             | ahurtado
 Host                     | sn-mem
 System                   | Linux-3.10.0-1160.24.1.el7.x86_64
 CMake generator          | Unix Makefiles
 Processor                | x86_64
 64-bit integers          | OFF
 MPI                      | ON
 Fortran compiler         | /gpfs/software/intel/oneAPI/2021_4/mpi/2021.4.0/bi
                          | n/mpif90
 Fortran compiler version | GNU Fortran (GCC) 11.2.0
 C compiler               | /gpfs/software/intel/oneAPI/2021_4/mpi/2021.4.0/bi
                          | n/mpicc
 C compiler version       | gcc (GCC) 11.2.0
 C++ compiler             | /gpfs/software/intel/oneAPI/2021_4/mpi/2021.4.0/bi
                          | n/mpicxx
 C++ compiler version     | unknown
 BLAS                     | /gpfs/software/intel/oneAPI/2021_4/mkl/2021.4.0/li
                          | b/intel64/libmkl_gf_lp64.so;/gpfs/software/intel/o
                          | neAPI/2021_4/mkl/2021.4.0/lib/intel64/libmkl_seque
                          | ntial.so;/gpfs/software/intel/oneAPI/2021_4/mkl/20
                          | 21.4.0/lib/intel64/libmkl_core.so;/usr/lib64/libpt
                          | hread.so;/usr/lib64/libm.so
 LAPACK                   | /gpfs/software/intel/oneAPI/2021_4/mkl/2021.4.0/li
                          | b/intel64/libmkl_lapack95_lp64.a;/gpfs/software/in
                          | tel/oneAPI/2021_4/mkl/2021.4.0/lib/intel64/libmkl_
                          | gf_lp64.so
 Static linking           | OFF
 Last Git revision        | 66052b3af5ea7225e31178bf9a8b031913c72190
 Git branch               | (HEAD detached at Dalton2020.0)
 Configuration time       | 2023-01-11 13:33:37.731835

 * MPI parallel run using 20 processes.


   Content of the .dal input file
 ----------------------------------

**DALTON INPUT
.RUN RESPONSE
.DIRECT
**WAVE FUNCTIONS
.HF
**RESPONSE
*LINEAR
.DIPLEN
.FREQUENCIES
9
0.0 0.030119 0.060238 0.09035699999999999 0.120476 0.150595 0.18071399999999999 0.210833 0.240952
**END OF DALTON INPUT


   Content of the .mol file
 ----------------------------

BASIS
d-aug-cc-pV5Z
blah
blah
Atomtype=1 Atomic
Charge=18 Atoms=1
Ar_a 0.000000000000 0.000000000000 0.000000000000


       *******************************************************************
       *********** Output from DALTON general input processing ***********
       *******************************************************************

 --------------------------------------------------------------------------------
   Overall default print level:    0
   Print level for DALTON.STAT:    1

    Parallel calculation using MPI
    AO-direct calculation (in sections where implemented)
    HERMIT 1- and 2-electron integral sections will be executed
    "Old" integral transformation used (limited to max 255 basis functions)
    Wave function sections will be executed (SIRIUS module)
    Dynamic molecular response properties section will be executed (RESPONSE module)
 --------------------------------------------------------------------------------


   ****************************************************************************
   *************** Output of molecule and basis set information ***************
   ****************************************************************************


    The two title cards from your ".mol" input:
    ------------------------------------------------------------------------
 1: blah                                                                    
 2: blah                                                                    
    ------------------------------------------------------------------------

  Atomic type no.    1
  --------------------
  Nuclear charge:  18.00000
  Number of symmetry independent centers:    1
  Number of basis sets to read;    2
  Basis set file used for this atomic type with Z =  18 :
     "/gpfs/projects/rjh/adrian/dalton/build/basis/aug-cc-pV5Z"


                      SYMADD: Requested addition of symmetry
                      --------------------------------------

 Symmetry test threshold:  5.00E-06

@   The molecule is centered at center of mass and rotated
@   so principal axes of inertia are along coordinate axes.

 Symmetry class found: D(oo,h)        

 Symmetry Independent Centres             
 ----------------------------
Ar_a  18 :      0.00000000     0.00000000     0.00000000  Isotope  1

 The following symmetry elements were found:   X  Y  Z  


                         SYMGRP: Point group information
                         -------------------------------

@    Full point group is: D(oo,h)        
@    Represented as:      D2h

@  * The irrep name for each symmetry:    1: Ag     2: B3u    3: B2u    4: B1g    5: B1u    6: B2g    7: B3g    8: Au 


   * The point group was generated by:

      Reflection in the yz-plane
      Reflection in the xz-plane
      Reflection in the xy-plane

   * Group multiplication table

        |  E   C2z  C2y  C2x   i   Oxy  Oxz  Oyz
   -----+----------------------------------------
     E  |  E   C2z  C2y  C2x   i   Oxy  Oxz  Oyz
    C2z | C2z   E   C2x  C2y  Oxy   i   Oyz  Oxz
    C2y | C2y  C2x   E   C2z  Oxz  Oyz   i   Oxy
    C2x | C2x  C2y  C2z   E   Oyz  Oxz  Oxy   i 
     i  |  i   Oxy  Oxz  Oyz   E   C2z  C2y  C2x
    Oxy | Oxy   i   Oyz  Oxz  C2z   E   C2x  C2y
    Oxz | Oxz  Oyz   i   Oxy  C2y  C2x   E   C2z
    Oyz | Oyz  Oxz  Oxy   i   C2x  C2y  C2z   E 

   * Character table

        |  E   C2z  C2y  C2x   i   Oxy  Oxz  Oyz
   -----+----------------------------------------
    Ag  |   1    1    1    1    1    1    1    1
    B3u |   1   -1   -1    1   -1    1    1   -1
    B2u |   1   -1    1   -1   -1    1   -1    1
    B1g |   1    1   -1   -1    1    1   -1   -1
    B1u |   1    1   -1   -1   -1   -1    1    1
    B2g |   1   -1    1   -1    1   -1    1   -1
    B3g |   1   -1   -1    1    1   -1   -1    1
    Au  |   1    1    1    1   -1   -1   -1   -1

   * Direct product table

        | Ag   B3u  B2u  B1g  B1u  B2g  B3g  Au 
   -----+----------------------------------------
    Ag  | Ag   B3u  B2u  B1g  B1u  B2g  B3g  Au 
    B3u | B3u  Ag   B1g  B2u  B2g  B1u  Au   B3g
    B2u | B2u  B1g  Ag   B3u  B3g  Au   B1u  B2g
    B1g | B1g  B2u  B3u  Ag   Au   B3g  B2g  B1u
    B1u | B1u  B2g  B3g  Au   Ag   B3u  B2u  B1g
    B2g | B2g  B1u  Au   B3g  B3u  Ag   B1g  B2u
    B3g | B3g  Au   B1u  B2g  B2u  B1g  Ag   B3u
    Au  | Au   B3g  B2g  B1u  B1g  B2u  B3u  Ag 


                                 Isotopic Masses
                                 ---------------

                           Ar_a       39.962383

                       Total mass:    39.962383 amu
                       Natural abundance:  99.600 %

 Center-of-mass coordinates (a.u.):    0.000000    0.000000    0.000000
 Center-of-mass coordinates (Angs):    0.000000    0.000000    0.000000


  Atoms and basis sets
  --------------------

  Number of atom types :    1
  Total number of atoms:    1

  Basis set used is "d-aug-cc-pV5Z" from the basis set library.

  label    atoms   charge   prim   cont     basis
  ----------------------------------------------------------------------
  Ar          1   18.0000   198   167      [22s14p6d5f4g3h|9s8p6d5f4g3h]                      
  ----------------------------------------------------------------------
  total:      1   18.0000   198   167
  ----------------------------------------------------------------------
  Spherical harmonic basis used.

  Threshold for neglecting AO integrals:  1.00D-12


  Cartesian Coordinates (a.u.)
  ----------------------------

  Total number of coordinates:    3
  Ar_a    :     1  x   0.0000000000    2  y   0.0000000000    3  z   0.0000000000


  Symmetry Coordinates
  --------------------

  Number of coordinates in each symmetry:     0    1    1    0    1    0    0    0

  Symmetry  B3u ( 2)

    1   Ar_a  x    1

  Symmetry  B2u ( 3)

    2   Ar_a  y    2

  Symmetry  B1u ( 5)

    3   Ar_a  z    3


@ This is an atomic calculation.


  Symmetry Orbitals
  -----------------

  Number of orbitals in each symmetry:          33   27   27   14   27   14   14   11


  Symmetry  Ag ( 1)

    1     Ar_a     1s         1
    2     Ar_a     1s         2
    3     Ar_a     1s         3
    4     Ar_a     1s         4
    5     Ar_a     1s         5
    6     Ar_a     1s         6
    7     Ar_a     1s         7
    8     Ar_a     1s         8
    9     Ar_a     1s         9
   10     Ar_a     3d0       36
   11     Ar_a     3d2+      38
   12     Ar_a     3d0       41
   13     Ar_a     3d2+      43
   14     Ar_a     3d0       46
   15     Ar_a     3d2+      48
   16     Ar_a     3d0       51
   17     Ar_a     3d2+      53
   18     Ar_a     3d0       56
   19     Ar_a     3d2+      58
   20     Ar_a     3d0       61
   21     Ar_a     3d2+      63
   22     Ar_a     5g0      103
   23     Ar_a     5g2+     105
   24     Ar_a     5g4+     107
   25     Ar_a     5g0      112
   26     Ar_a     5g2+     114
   27     Ar_a     5g4+     116
   28     Ar_a     5g0      121
   29     Ar_a     5g2+     123
   30     Ar_a     5g4+     125
   31     Ar_a     5g0      130
   32     Ar_a     5g2+     132
   33     Ar_a     5g4+     134


  Symmetry  B3u( 2)

   34     Ar_a     2px       10
   35     Ar_a     2px       13
   36     Ar_a     2px       16
   37     Ar_a     2px       19
   38     Ar_a     2px       22
   39     Ar_a     2px       25
   40     Ar_a     2px       28
   41     Ar_a     2px       31
   42     Ar_a     4f1+      68
   43     Ar_a     4f3+      70
   44     Ar_a     4f1+      75
   45     Ar_a     4f3+      77
   46     Ar_a     4f1+      82
   47     Ar_a     4f3+      84
   48     Ar_a     4f1+      89
   49     Ar_a     4f3+      91
   50     Ar_a     4f1+      96
   51     Ar_a     4f3+      98
   52     Ar_a     6h1+     141
   53     Ar_a     6h3+     143
   54     Ar_a     6h5+     145
   55     Ar_a     6h1+     152
   56     Ar_a     6h3+     154
   57     Ar_a     6h5+     156
   58     Ar_a     6h1+     163
   59     Ar_a     6h3+     165
   60     Ar_a     6h5+     167


  Symmetry  B2u( 3)

   61     Ar_a     2py       11
   62     Ar_a     2py       14
   63     Ar_a     2py       17
   64     Ar_a     2py       20
   65     Ar_a     2py       23
   66     Ar_a     2py       26
   67     Ar_a     2py       29
   68     Ar_a     2py       32
   69     Ar_a     4f3-      64
   70     Ar_a     4f1-      66
   71     Ar_a     4f3-      71
   72     Ar_a     4f1-      73
   73     Ar_a     4f3-      78
   74     Ar_a     4f1-      80
   75     Ar_a     4f3-      85
   76     Ar_a     4f1-      87
   77     Ar_a     4f3-      92
   78     Ar_a     4f1-      94
   79     Ar_a     6h5-     135
   80     Ar_a     6h3-     137
   81     Ar_a     6h1-     139
   82     Ar_a     6h5-     146
   83     Ar_a     6h3-     148
   84     Ar_a     6h1-     150
   85     Ar_a     6h5-     157
   86     Ar_a     6h3-     159
   87     Ar_a     6h1-     161


  Symmetry  B1g( 4)

   88     Ar_a     3d2-      34
   89     Ar_a     3d2-      39
   90     Ar_a     3d2-      44
   91     Ar_a     3d2-      49
   92     Ar_a     3d2-      54
   93     Ar_a     3d2-      59
   94     Ar_a     5g4-      99
   95     Ar_a     5g2-     101
   96     Ar_a     5g4-     108
   97     Ar_a     5g2-     110
   98     Ar_a     5g4-     117
   99     Ar_a     5g2-     119
  100     Ar_a     5g4-     126
  101     Ar_a     5g2-     128


  Symmetry  B1u( 5)

  102     Ar_a     2pz       12
  103     Ar_a     2pz       15
  104     Ar_a     2pz       18
  105     Ar_a     2pz       21
  106     Ar_a     2pz       24
  107     Ar_a     2pz       27
  108     Ar_a     2pz       30
  109     Ar_a     2pz       33
  110     Ar_a     4f0       67
  111     Ar_a     4f2+      69
  112     Ar_a     4f0       74
  113     Ar_a     4f2+      76
  114     Ar_a     4f0       81
  115     Ar_a     4f2+      83
  116     Ar_a     4f0       88
  117     Ar_a     4f2+      90
  118     Ar_a     4f0       95
  119     Ar_a     4f2+      97
  120     Ar_a     6h0      140
  121     Ar_a     6h2+     142
  122     Ar_a     6h4+     144
  123     Ar_a     6h0      151
  124     Ar_a     6h2+     153
  125     Ar_a     6h4+     155
  126     Ar_a     6h0      162
  127     Ar_a     6h2+     164
  128     Ar_a     6h4+     166


  Symmetry  B2g( 6)

  129     Ar_a     3d1+      37
  130     Ar_a     3d1+      42
  131     Ar_a     3d1+      47
  132     Ar_a     3d1+      52
  133     Ar_a     3d1+      57
  134     Ar_a     3d1+      62
  135     Ar_a     5g1+     104
  136     Ar_a     5g3+     106
  137     Ar_a     5g1+     113
  138     Ar_a     5g3+     115
  139     Ar_a     5g1+     122
  140     Ar_a     5g3+     124
  141     Ar_a     5g1+     131
  142     Ar_a     5g3+     133


  Symmetry  B3g( 7)

  143     Ar_a     3d1-      35
  144     Ar_a     3d1-      40
  145     Ar_a     3d1-      45
  146     Ar_a     3d1-      50
  147     Ar_a     3d1-      55
  148     Ar_a     3d1-      60
  149     Ar_a     5g3-     100
  150     Ar_a     5g1-     102
  151     Ar_a     5g3-     109
  152     Ar_a     5g1-     111
  153     Ar_a     5g3-     118
  154     Ar_a     5g1-     120
  155     Ar_a     5g3-     127
  156     Ar_a     5g1-     129


  Symmetry  Au ( 8)

  157     Ar_a     4f2-      65
  158     Ar_a     4f2-      72
  159     Ar_a     4f2-      79
  160     Ar_a     4f2-      86
  161     Ar_a     4f2-      93
  162     Ar_a     6h4-     136
  163     Ar_a     6h2-     138
  164     Ar_a     6h4-     147
  165     Ar_a     6h2-     149
  166     Ar_a     6h4-     158
  167     Ar_a     6h2-     160

  Symmetries of electric field:  B3u(2)  B2u(3)  B1u(5)

  Symmetries of magnetic field:  B3g(7)  B2g(6)  B1g(4)


                     .---------------------------------------.
                     | Starting in Integral Section (HERMIT) |
                     `---------------------------------------'



 ***************************************************************************************
 ****************** Output from **INTEGRALS input processing (HERMIT) ******************
 ***************************************************************************************


 - Using defaults, no **INTEGRALS input found

 Default print level:        1

 Calculation of one-electron Hamiltonian integrals.

 Center of mass  (bohr):      0.000000000000      0.000000000000      0.000000000000
 Operator center (bohr):      0.000000000000      0.000000000000      0.000000000000
 Gauge origin    (bohr):      0.000000000000      0.000000000000      0.000000000000
 Dipole origin   (bohr):      0.000000000000      0.000000000000      0.000000000000


     ************************************************************************
     ************************** Output from HERINT **************************
     ************************************************************************



                      Nuclear contribution to dipole moments
                      --------------------------------------

                    All dipole components are zero by symmetry


  Time used in GABGEN     is       0.71 seconds
  Total CPU  time used in HERMIT:   0.89 seconds
  Total wall time used in HERMIT:   0.90 seconds


                        .----------------------------------.
                        | End of Integral Section (HERMIT) |
                        `----------------------------------'



                   .--------------------------------------------.
                   | Starting in Wave Function Section (SIRIUS) |
                   `--------------------------------------------'


 *** Output from Huckel module :

     Using EWMO model:          T
     Using EHT  model:          F
     Number of Huckel orbitals each symmetry:    5    2    2    1    2    1    1    0

 EWMO - Energy Weighted Maximum Overlap - is a Huckel type method,
        which normally is better than Extended Huckel Theory.
 Reference: Linderberg and Ohrn, Propagators in Quantum Chemistry (Wiley, 1973)

 Huckel EWMO eigenvalues for symmetry :  1
         -118.609800     -12.322100      -1.277300      -0.055556      -0.055556

 Huckel EWMO eigenvalues for symmetry :  2
           -9.571400      -0.591000

 Huckel EWMO eigenvalues for symmetry :  3
           -9.571400      -0.591000

 Huckel EWMO eigenvalues for symmetry :  4
           -0.055556

 Huckel EWMO eigenvalues for symmetry :  5
           -9.571400      -0.591000

 Huckel EWMO eigenvalues for symmetry :  6
           -0.055556

 Huckel EWMO eigenvalues for symmetry :  7
           -0.055556

 **********************************************************************
 *SIRIUS* a direct, restricted step, second order MCSCF program       *
 **********************************************************************

 
     Date and time (Linux)  : Wed Jan 11 14:14:55 2023
     Host name              : cn021                                   

 Title lines from ".mol" input file:
     blah                                                                    
     blah                                                                    

 Print level on unit LUPRI =   2 is   0
 Print level on unit LUW4  =   2 is   5

@    Restricted, closed shell Hartree-Fock calculation.

@    Time-dependent Hartree-Fock calculation (random phase approximation).
 Fock matrices are calculated directly and in parallel without use of integrals on disk.

 Initial molecular orbitals are obtained according to
 ".MOSTART EWMO  " input option

     Wave function specification
     ============================
@    Wave function type        --- HF ---
@    Number of closed shell electrons          18
@    Number of electrons in active shells       0
@    Total charge of the molecule               0

@    Spin multiplicity and 2 M_S                1         0
@    Total number of symmetries                 8 (point group: D2h)
@    Reference state symmetry                   1 (irrep name : Ag )

     Orbital specifications
     ======================
@    Abelian symmetry species          All |    1    2    3    4    5    6    7    8
@                                          |  Ag   B3u  B2u  B1g  B1u  B2g  B3g  Au 
                                       --- |  ---  ---  ---  ---  ---  ---  ---  ---
@    Total number of orbitals          167 |   33   27   27   14   27   14   14   11
@    Number of basis functions         167 |   33   27   27   14   27   14   14   11

      ** Automatic occupation of RHF orbitals **

      -- Initial occupation of symmetries is determined from extended Huckel guess.           
      -- Initial occupation of symmetries is :
@    Occupied SCF orbitals               9 |    3    2    2    0    2    0    0    0

     Maximum number of Fock   iterations      0
     Maximum number of DIIS   iterations     60
     Maximum number of QC-SCF iterations     60
     Threshold for SCF convergence     1.00D-05


 ***********************************************
 ***** DIIS acceleration of SCF iterations *****
 ***********************************************

 C1-DIIS algorithm; max error vectors =    8

 Automatic occupation of symmetries with  18 electrons.

 Iter     Total energy    Error norm  Delta(E)    SCF occupation
 -----------------------------------------------------------------------------
   1  Screening settings (-IFTHRS, JTDIIS, DIFDEN, times)   -7    1    T  1.35D-01  1.35D-01
@  1  -526.816435922       4.31D-01  -5.27D+02     3   2   2   0   2   0   0   0
      Virial theorem: -V/T =      1.999769
@    MULPOP   Ar_a    0.00; 
   1  Level shift: doubly occupied orbital energies shifted by -2.00D-01
 -----------------------------------------------------------------------------
   2  Screening settings (-IFTHRS, JTDIIS, DIFDEN, times)   -7    2    T  1.18D-01  1.18D-01
@  2  -526.817319289       2.36D-02  -8.83D-04     3   2   2   0   2   0   0   0
      Virial theorem: -V/T =      2.000081
@    MULPOP   Ar_a    0.00; 
   2  Level shift: doubly occupied orbital energies shifted by -5.00D-02
 -----------------------------------------------------------------------------
   3  Screening settings (-IFTHRS, JTDIIS, DIFDEN, times)  -11    3    F  1.20D-01  1.20D-01
@  3  -526.817348025       5.96D-03  -2.87D-05     3   2   2   0   2   0   0   0
      Virial theorem: -V/T =      1.999978
@    MULPOP   Ar_a    0.00; 
   3  Level shift: doubly occupied orbital energies shifted by -2.50D-02
 -----------------------------------------------------------------------------
   4  Screening settings (-IFTHRS, JTDIIS, DIFDEN, times)  -11    4    T  1.17D-01  1.17D-01
@  4  -526.817349272       9.97D-04  -1.25D-06     3   2   2   0   2   0   0   0
      Virial theorem: -V/T =      2.000005
@    MULPOP   Ar_a   -0.00; 
 -----------------------------------------------------------------------------
   5  Screening settings (-IFTHRS, JTDIIS, DIFDEN, times)  -11    5    T  1.17D-01  1.17D-01
@  5  -526.817349344       6.48D-05  -7.12D-08     3   2   2   0   2   0   0   0
      Virial theorem: -V/T =      2.000001
@    MULPOP   Ar_a   -0.00; 
 -----------------------------------------------------------------------------
   6  Screening settings (-IFTHRS, JTDIIS, DIFDEN, times)  -11    6    T  1.19D-01  1.19D-01
@  6  -526.817349344       6.74D-06  -5.02D-10     3   2   2   0   2   0   0   0

@ *** DIIS converged in   6 iterations !
@     Converged SCF energy, gradient:   -526.817349344077    6.74D-06
    - total time used in SIRFCK :              0.00 seconds


 *** SCF orbital energy analysis ***

 Only the 20 lowest virtual orbital energies printed in each symmetry.

 Number of electrons :   18
 Orbital occupations :    3    2    2    0    2    0    0    0

 Sym       Hartree-Fock orbital energies

1 Ag   -118.61039565   -12.32217652    -1.27736933     0.03040729     0.14490200
          0.14490200     0.17233496     0.40482847     0.40482847     0.68335315
          0.81062279     0.81062279     0.81062279     0.86333296     0.86333296
          2.00247995     2.00247995     2.00247995     2.02136646     2.02136646
          2.36706643     4.22738461     4.22738461

2 B3u    -9.57146977    -0.59102637     0.03334687     0.14216280     0.40299146
          0.40299146     0.49775452     1.03171967     1.03171967     1.62296203
          2.13409510     2.13409510     2.38800415     2.38800415     2.38800415
          4.23429122     4.23429122     5.07121068     5.26404661     5.26404661
          5.26404661     8.30066216

3 B2u    -9.57146977    -0.59102637     0.03334687     0.14216280     0.40299146
          0.40299146     0.49775452     1.03171967     1.03171967     1.62296203
          2.13409510     2.13409510     2.38800415     2.38800415     2.38800415
          4.23429122     4.23429122     5.07121068     5.26404661     5.26404661
          5.26404661     8.30066216

4 B1g     0.14490200     0.40482847     0.81062279     0.81062279     0.86333296
          2.00247995     2.00247995     2.02136646     4.22738461     4.22738461
          5.13702477     9.02727592     9.02727592    13.27645572

5 B1u    -9.57146977    -0.59102637     0.03334687     0.14216280     0.40299146
          0.40299146     0.49775452     1.03171967     1.03171967     1.62296203
          2.13409510     2.13409510     2.38800415     2.38800415     2.38800415
          4.23429122     4.23429122     5.07121068     5.26404661     5.26404661
          5.26404661     8.30066216

6 B2g     0.14490200     0.40482847     0.81062279     0.81062279     0.86333296
          2.00247995     2.00247995     2.02136646     4.22738461     4.22738461
          5.13702477     9.02727592     9.02727592    13.27645572

7 B3g     0.14490200     0.40482847     0.81062279     0.81062279     0.86333296
          2.00247995     2.00247995     2.02136646     4.22738461     4.22738461
          5.13702477     9.02727592     9.02727592    13.27645572

8 Au      0.40299146     1.03171967     2.13409510     2.38800415     2.38800415
          4.23429122     5.26404661     5.26404661     8.30066216    10.15612506
         10.15612506

    E(LUMO) :     0.03040729 au (symmetry 1)
  - E(HOMO) :    -0.59102637 au (symmetry 2)
  ------------------------------------------
    gap     :     0.62143366 au

 --- Writing SIRIFC interface file

 CPU and wall time for SCF :       0.736       0.742


                       .-----------------------------------.
                       | --- Final results from SIRIUS --- |
                       `-----------------------------------'


@    Spin multiplicity:           1
@    Spatial symmetry:            1 ( irrep  Ag  in D2h )
@    Total charge of molecule:    0

@    Final HF energy:            -526.817349344077                 
@    Nuclear repulsion:             0.000000000000
@    Electronic energy:          -526.817349344077

@    Final gradient norm:           0.000006744938

 
     Date and time (Linux)  : Wed Jan 11 14:14:56 2023
     Host name              : cn021                                   

File label for MO orbitals:  11Jan23   FOCKDIIS

 (Only coefficients > 0.0100 are printed.)

 Molecular orbitals for symmetry species 1  (Ag )
 ------------------------------------------------

    Orbital         1        2        3        4        5        6        7
   1 Ar_a:1s     1.0000  -0.0008   0.0024  -0.0021  -0.0000   0.0000   0.0095
   2 Ar_a:1s     0.0001   0.9533   0.3022   0.0218  -0.0000   0.0000   0.0949
   3 Ar_a:1s     0.0025   0.3022  -0.9536  -0.1607  -0.0000   0.0000  -0.0248
   4 Ar_a:1s    -0.0000   0.0000  -0.0002  -0.0367  -0.0000   0.0000   0.1461
   5 Ar_a:1s     0.0000  -0.0000   0.0005   0.1103   0.0000  -0.0000  -0.4840
   6 Ar_a:1s    -0.0000   0.0000  -0.0004  -0.1770   0.0000  -0.0000   0.6826
   7 Ar_a:1s     0.0000  -0.0000   0.0004   0.3503   0.0000  -0.0000  -2.0237
   8 Ar_a:1s    -0.0000   0.0000   0.0004  -0.9589  -0.0000   0.0000   3.3787
   9 Ar_a:1s     0.0000  -0.0000  -0.0009   1.6011   0.0000  -0.0000  -1.5914
  12 Ar_a:3d0   -0.0000   0.0000  -0.0000  -0.0000   0.0193   0.0000  -0.0000
  13 Ar_a:3d2+  -0.0000  -0.0000  -0.0000   0.0000  -0.0000   0.0193   0.0000
  14 Ar_a:3d0    0.0000  -0.0000   0.0000   0.0000  -0.0201  -0.0000   0.0000
  15 Ar_a:3d2+   0.0000   0.0000   0.0000  -0.0000   0.0000  -0.0201  -0.0000
  16 Ar_a:3d0   -0.0000   0.0000  -0.0000   0.0000   0.1474  -0.0000   0.0000
  17 Ar_a:3d2+  -0.0000  -0.0000  -0.0000  -0.0000  -0.0000   0.1474  -0.0000
  18 Ar_a:3d0    0.0000  -0.0000   0.0000  -0.0000  -0.3446   0.0000  -0.0000
  19 Ar_a:3d2+   0.0000   0.0000   0.0000   0.0000   0.0000  -0.3446   0.0000
  20 Ar_a:3d0   -0.0000   0.0000  -0.0000   0.0000   1.1855  -0.0000   0.0000
  21 Ar_a:3d2+  -0.0000  -0.0000  -0.0000  -0.0000  -0.0000   1.1855  -0.0000

    Orbital         8        9       10       11       12       13
   1 Ar_a:1s     0.0000   0.0000  -0.0329   0.0000   0.0000   0.0000
   2 Ar_a:1s     0.0000   0.0000   0.0723   0.0000   0.0000   0.0000
   3 Ar_a:1s     0.0000   0.0000  -1.5415  -0.0000  -0.0000  -0.0000
   4 Ar_a:1s     0.0000   0.0000  -0.5772  -0.0000  -0.0000  -0.0000
   5 Ar_a:1s    -0.0000  -0.0000   1.8662   0.0000   0.0000   0.0000
   6 Ar_a:1s    -0.0000  -0.0000  -3.4251   0.0000   0.0000   0.0000
   7 Ar_a:1s    -0.0000  -0.0000   5.9048   0.0000  -0.0000   0.0000
   8 Ar_a:1s     0.0000   0.0000  -3.1721  -0.0000   0.0000  -0.0000
   9 Ar_a:1s    -0.0000  -0.0000   0.9380   0.0000  -0.0000   0.0000
  10 Ar_a:3d0   -0.0313  -0.0000   0.0000  -0.0000  -0.0000  -0.0000
  11 Ar_a:3d2+   0.0000   0.0313   0.0000   0.0000   0.0000   0.0000
  12 Ar_a:3d0   -0.0217   0.0000  -0.0000  -0.0000  -0.0000   0.0000
  13 Ar_a:3d2+   0.0000   0.0217   0.0000  -0.0000   0.0000   0.0000
  14 Ar_a:3d0   -0.2169  -0.0000   0.0000   0.0000   0.0000  -0.0000
  15 Ar_a:3d2+  -0.0000   0.2169   0.0000   0.0000   0.0000   0.0000
  16 Ar_a:3d0    0.1260  -0.0000   0.0000  -0.0000  -0.0000  -0.0000
  17 Ar_a:3d2+   0.0000  -0.1260  -0.0000   0.0000   0.0000   0.0000
  18 Ar_a:3d0   -1.3730   0.0000   0.0000  -0.0000  -0.0000   0.0000
  19 Ar_a:3d2+  -0.0000   1.3730   0.0000  -0.0000   0.0000  -0.0000
  20 Ar_a:3d0    0.7905  -0.0000  -0.0000   0.0000   0.0000  -0.0000
  21 Ar_a:3d2+   0.0000  -0.7905  -0.0000   0.0000  -0.0000   0.0000
  22 Ar_a:5g0    0.0000  -0.0000  -0.0000  -0.0000   0.0345  -0.0000
  23 Ar_a:5g2+   0.0000   0.0000  -0.0000  -0.0000   0.0000   0.0345
  24 Ar_a:5g4+   0.0000  -0.0000  -0.0000  -0.0345   0.0000  -0.0000
  25 Ar_a:5g0    0.0000   0.0000   0.0000   0.0000  -0.1885   0.0000
  26 Ar_a:5g2+  -0.0000   0.0000   0.0000   0.0000   0.0000  -0.1885
  27 Ar_a:5g4+  -0.0000   0.0000   0.0000   0.1885  -0.0000   0.0000
  28 Ar_a:5g0    0.0000  -0.0000  -0.0000  -0.0000   0.5754  -0.0000
  29 Ar_a:5g2+  -0.0000  -0.0000  -0.0000  -0.0000  -0.0000   0.5754
  30 Ar_a:5g4+   0.0000  -0.0000   0.0000  -0.5754   0.0000  -0.0000
  31 Ar_a:5g0   -0.0000   0.0000   0.0000   0.0000  -1.3236   0.0000
  32 Ar_a:5g2+   0.0000   0.0000   0.0000   0.0000   0.0000  -1.3236
  33 Ar_a:5g4+  -0.0000   0.0000  -0.0000   1.3236  -0.0000   0.0000

 Molecular orbitals for symmetry species 2  (B3u)
 ------------------------------------------------

    Orbital         1        2        3        4        5        6        7
   1 Ar_a:2px    0.9210   0.3900   0.0310   0.0467   0.0000   0.0000  -0.3460
   2 Ar_a:2px   -0.3897   0.9211   0.0626   0.1400   0.0000   0.0000  -0.6513
   3 Ar_a:2px    0.0000   0.0001   0.0046  -0.0134  -0.0000  -0.0000  -0.0703
   4 Ar_a:2px   -0.0001  -0.0005  -0.0301   0.1184  -0.0000  -0.0000   0.4629
   5 Ar_a:2px    0.0001   0.0007   0.0614  -0.2192  -0.0000  -0.0000  -1.1578
   6 Ar_a:2px   -0.0002  -0.0013  -0.1538   0.7892  -0.0000  -0.0000   2.8821
   7 Ar_a:2px    0.0002   0.0006   0.4991  -2.0963   0.0000   0.0000  -1.7556
   8 Ar_a:2px   -0.0001   0.0012  -1.2940   1.0460  -0.0000  -0.0000   0.5721
   9 Ar_a:4f1+  -0.0000  -0.0000  -0.0000  -0.0000   0.0000  -0.0324   0.0000
  10 Ar_a:4f3+  -0.0000   0.0000   0.0000   0.0000   0.0324   0.0000  -0.0000
  11 Ar_a:4f1+  -0.0000   0.0000   0.0000   0.0000  -0.0000   0.1228  -0.0000
  12 Ar_a:4f3+   0.0000  -0.0000  -0.0000  -0.0000  -0.1228  -0.0000   0.0000
  13 Ar_a:4f1+   0.0000  -0.0000  -0.0000  -0.0000   0.0000  -0.3734   0.0000
  14 Ar_a:4f3+  -0.0000   0.0000   0.0000   0.0000   0.3734   0.0000  -0.0000
  15 Ar_a:4f1+  -0.0000   0.0000   0.0000   0.0000  -0.0000   0.8444  -0.0000
  16 Ar_a:4f3+   0.0000  -0.0000  -0.0000  -0.0000  -0.8444  -0.0000   0.0000
  17 Ar_a:4f1+   0.0000  -0.0000  -0.0000  -0.0000   0.0000  -1.4774   0.0000
  18 Ar_a:4f3+  -0.0000   0.0000   0.0000   0.0000   1.4774   0.0000  -0.0000

    Orbital         8        9       10       11       12
   2 Ar_a:2px    0.0000  -0.0000  -0.4083  -0.0000   0.0000
   3 Ar_a:2px   -0.0000   0.0000   0.2044   0.0000  -0.0000
   4 Ar_a:2px   -0.0000   0.0000  -2.1297   0.0000  -0.0000
   5 Ar_a:2px   -0.0000   0.0000   3.5639   0.0000  -0.0000
   6 Ar_a:2px   -0.0000   0.0000  -2.1288   0.0000  -0.0000
   7 Ar_a:2px   -0.0000   0.0000   0.9412   0.0000  -0.0000
   8 Ar_a:2px    0.0000  -0.0000  -0.2865  -0.0000   0.0000
   9 Ar_a:4f1+   0.0000   0.0599   0.0000  -0.0000  -0.2004
  10 Ar_a:4f3+   0.0599  -0.0000  -0.0000  -0.2004  -0.0000
  11 Ar_a:4f1+  -0.0000  -0.3080  -0.0000   0.0000   0.5731
  12 Ar_a:4f3+  -0.3080   0.0000   0.0000   0.5731   0.0000
  13 Ar_a:4f1+   0.0000   0.8366   0.0000  -0.0000  -2.4784
  14 Ar_a:4f3+   0.8366  -0.0000  -0.0000  -2.4784  -0.0000
  15 Ar_a:4f1+  -0.0000  -2.2855  -0.0000   0.0000   2.2390
  16 Ar_a:4f3+  -2.2855   0.0000   0.0000   2.2390   0.0000
  17 Ar_a:4f1+   0.0000   1.1832   0.0000  -0.0000  -0.8091
  18 Ar_a:4f3+   1.1832  -0.0000  -0.0000  -0.8091  -0.0000

 Molecular orbitals for symmetry species 3  (B2u)
 ------------------------------------------------

    Orbital         1        2        3        4        5        6        7
   1 Ar_a:2py    0.9210   0.3900   0.0310   0.0467  -0.0000   0.0000  -0.3460
   2 Ar_a:2py   -0.3897   0.9211   0.0626   0.1400  -0.0000   0.0000  -0.6513
   3 Ar_a:2py    0.0000   0.0001   0.0046  -0.0134   0.0000  -0.0000  -0.0703
   4 Ar_a:2py   -0.0001  -0.0005  -0.0301   0.1184   0.0000  -0.0000   0.4629
   5 Ar_a:2py    0.0001   0.0007   0.0614  -0.2192   0.0000  -0.0000  -1.1578
   6 Ar_a:2py   -0.0002  -0.0013  -0.1538   0.7892   0.0000  -0.0000   2.8821
   7 Ar_a:2py    0.0002   0.0006   0.4991  -2.0963   0.0000  -0.0000  -1.7556
   8 Ar_a:2py   -0.0001   0.0012  -1.2940   1.0460  -0.0000   0.0000   0.5721
   9 Ar_a:4f3-   0.0000  -0.0000  -0.0000  -0.0000  -0.0324   0.0000   0.0000
  10 Ar_a:4f1-  -0.0000  -0.0000  -0.0000  -0.0000  -0.0000  -0.0324   0.0000
  11 Ar_a:4f3-  -0.0000   0.0000   0.0000   0.0000   0.1228  -0.0000  -0.0000
  12 Ar_a:4f1-  -0.0000   0.0000   0.0000   0.0000   0.0000   0.1228  -0.0000
  13 Ar_a:4f3-   0.0000  -0.0000  -0.0000  -0.0000  -0.3734   0.0000   0.0000
  14 Ar_a:4f1-   0.0000  -0.0000  -0.0000  -0.0000  -0.0000  -0.3734   0.0000
  15 Ar_a:4f3-  -0.0000   0.0000   0.0000   0.0000   0.8444  -0.0000  -0.0000
  16 Ar_a:4f1-  -0.0000   0.0000   0.0000   0.0000   0.0000   0.8444  -0.0000
  17 Ar_a:4f3-   0.0000  -0.0000  -0.0000  -0.0000  -1.4774   0.0000   0.0000
  18 Ar_a:4f1-   0.0000  -0.0000  -0.0000  -0.0000  -0.0000  -1.4774   0.0000

    Orbital         8        9       10       11       12
   2 Ar_a:2py   -0.0000  -0.0000   0.4083   0.0000   0.0000
   3 Ar_a:2py    0.0000   0.0000  -0.2044  -0.0000  -0.0000
   4 Ar_a:2py    0.0000   0.0000   2.1297  -0.0000  -0.0000
   5 Ar_a:2py    0.0000   0.0000  -3.5639  -0.0000  -0.0000
   6 Ar_a:2py    0.0000   0.0000   2.1288  -0.0000  -0.0000
   7 Ar_a:2py    0.0000   0.0000  -0.9412  -0.0000  -0.0000
   8 Ar_a:2py   -0.0000  -0.0000   0.2865   0.0000   0.0000
   9 Ar_a:4f3-   0.0000   0.0599  -0.0000   0.0000  -0.2004
  10 Ar_a:4f1-   0.0599   0.0000  -0.0000  -0.2004  -0.0000
  11 Ar_a:4f3-  -0.0000  -0.3080   0.0000  -0.0000   0.5731
  12 Ar_a:4f1-  -0.3080  -0.0000   0.0000   0.5731   0.0000
  13 Ar_a:4f3-   0.0000   0.8366  -0.0000   0.0000  -2.4784
  14 Ar_a:4f1-   0.8366   0.0000  -0.0000  -2.4784  -0.0000
  15 Ar_a:4f3-   0.0000  -2.2855   0.0000  -0.0000   2.2390
  16 Ar_a:4f1-  -2.2855  -0.0000   0.0000   2.2390   0.0000
  17 Ar_a:4f3-  -0.0000   1.1832  -0.0000   0.0000  -0.8091
  18 Ar_a:4f1-   1.1832   0.0000  -0.0000  -0.8091  -0.0000

 Molecular orbitals for symmetry species 4  (B1g)
 ------------------------------------------------

    Orbital         1        2        3        4        5        6        7
   1 Ar_a:3d2-   0.0008  -0.0313   0.0000  -0.0000   0.0458   0.0000  -0.0000
   2 Ar_a:3d2-   0.0193  -0.0217  -0.0000  -0.0000   0.1904  -0.0000  -0.0000
   3 Ar_a:3d2-  -0.0201  -0.2169   0.0000  -0.0000   0.0615   0.0000  -0.0000
   4 Ar_a:3d2-   0.1474   0.1260   0.0000   0.0000   1.2904   0.0000   0.0000
   5 Ar_a:3d2-  -0.3446  -1.3730  -0.0000   0.0000  -1.4526  -0.0000   0.0000
   6 Ar_a:3d2-   1.1855   0.7905   0.0000  -0.0000   0.5572   0.0000   0.0000
   7 Ar_a:5g4-   0.0000  -0.0000   0.0345  -0.0000   0.0000  -0.0940   0.0000
   8 Ar_a:5g2-  -0.0000   0.0000  -0.0000   0.0345  -0.0000   0.0000  -0.0940
   9 Ar_a:5g4-  -0.0000   0.0000  -0.1885   0.0000  -0.0000   0.4706  -0.0000
  10 Ar_a:5g2-   0.0000  -0.0000  -0.0000  -0.1885   0.0000  -0.0000   0.4706
  11 Ar_a:5g4-   0.0000  -0.0000   0.5754  -0.0000   0.0000  -1.8280   0.0000
  12 Ar_a:5g2-  -0.0000   0.0000   0.0000   0.5754  -0.0000  -0.0000  -1.8280
  13 Ar_a:5g4-  -0.0000   0.0000  -1.3236   0.0000  -0.0000   0.9134  -0.0000
  14 Ar_a:5g2-   0.0000  -0.0000  -0.0000  -1.3236   0.0000   0.0000   0.9134

    Orbital         8        9       10
   1 Ar_a:3d2-  -0.1692   0.0000  -0.0000
   2 Ar_a:3d2-  -0.0409   0.0000  -0.0000
   3 Ar_a:3d2-  -1.3781   0.0000  -0.0000
   4 Ar_a:3d2-   1.8910  -0.0000  -0.0000
   5 Ar_a:3d2-  -1.0647  -0.0000  -0.0000
   6 Ar_a:3d2-   0.3487  -0.0000   0.0000
   7 Ar_a:5g4-  -0.0000  -0.1750  -0.0000
   8 Ar_a:5g2-   0.0000  -0.0000  -0.1750
   9 Ar_a:5g4-   0.0000   1.7962   0.0000
  10 Ar_a:5g2-  -0.0000   0.0000   1.7962
  11 Ar_a:5g4-  -0.0000  -1.5179  -0.0000
  12 Ar_a:5g2-   0.0000  -0.0000  -1.5179
  13 Ar_a:5g4-   0.0000   0.5515   0.0000
  14 Ar_a:5g2-  -0.0000   0.0000   0.5515

 Molecular orbitals for symmetry species 5  (B1u)
 ------------------------------------------------

    Orbital         1        2        3        4        5        6        7
   1 Ar_a:2pz    0.9210   0.3900   0.0310   0.0467   0.0000  -0.0000  -0.3460
   2 Ar_a:2pz   -0.3897   0.9211   0.0626   0.1400   0.0000  -0.0000  -0.6513
   3 Ar_a:2pz    0.0000   0.0001   0.0046  -0.0134  -0.0000   0.0000  -0.0703
   4 Ar_a:2pz   -0.0001  -0.0005  -0.0301   0.1184  -0.0000   0.0000   0.4629
   5 Ar_a:2pz    0.0001   0.0007   0.0614  -0.2192  -0.0000   0.0000  -1.1578
   6 Ar_a:2pz   -0.0002  -0.0013  -0.1538   0.7892  -0.0000   0.0000   2.8821
   7 Ar_a:2pz    0.0002   0.0006   0.4991  -2.0963  -0.0000   0.0000  -1.7556
   8 Ar_a:2pz   -0.0001   0.0012  -1.2940   1.0460   0.0000  -0.0000   0.5721
   9 Ar_a:4f0   -0.0000   0.0000   0.0000   0.0000  -0.0324  -0.0000  -0.0000
  10 Ar_a:4f2+   0.0000   0.0000   0.0000   0.0000  -0.0000  -0.0324  -0.0000
  11 Ar_a:4f0    0.0000  -0.0000  -0.0000  -0.0000   0.1228  -0.0000   0.0000
  12 Ar_a:4f2+  -0.0000  -0.0000  -0.0000  -0.0000   0.0000   0.1228   0.0000
  13 Ar_a:4f0   -0.0000   0.0000   0.0000   0.0000  -0.3734   0.0000  -0.0000
  14 Ar_a:4f2+   0.0000   0.0000   0.0000   0.0000  -0.0000  -0.3734  -0.0000
  15 Ar_a:4f0    0.0000  -0.0000  -0.0000  -0.0000   0.8444  -0.0000   0.0000
  16 Ar_a:4f2+  -0.0000  -0.0000  -0.0000  -0.0000   0.0000   0.8444   0.0000
  17 Ar_a:4f0   -0.0000  -0.0000  -0.0000  -0.0000  -1.4774  -0.0000   0.0000
  18 Ar_a:4f2+   0.0000   0.0000   0.0000   0.0000  -0.0000  -1.4774  -0.0000

    Orbital         8        9       10       11       12
   2 Ar_a:2pz    0.0000   0.0000   0.4083   0.0000  -0.0000
   3 Ar_a:2pz   -0.0000  -0.0000  -0.2044  -0.0000   0.0000
   4 Ar_a:2pz   -0.0000  -0.0000   2.1297  -0.0000   0.0000
   5 Ar_a:2pz   -0.0000  -0.0000  -3.5639  -0.0000   0.0000
   6 Ar_a:2pz   -0.0000  -0.0000   2.1288  -0.0000   0.0000
   7 Ar_a:2pz   -0.0000  -0.0000  -0.9412  -0.0000   0.0000
   8 Ar_a:2pz    0.0000   0.0000   0.2865   0.0000  -0.0000
   9 Ar_a:4f0   -0.0000   0.0599   0.0000  -0.2004  -0.0000
  10 Ar_a:4f2+   0.0599  -0.0000   0.0000  -0.0000  -0.2004
  11 Ar_a:4f0   -0.0000  -0.3080  -0.0000   0.5731   0.0000
  12 Ar_a:4f2+  -0.3080   0.0000  -0.0000   0.0000   0.5731
  13 Ar_a:4f0    0.0000   0.8366   0.0000  -2.4784  -0.0000
  14 Ar_a:4f2+   0.8366  -0.0000   0.0000  -0.0000  -2.4784
  15 Ar_a:4f0   -0.0000  -2.2855  -0.0000   2.2390   0.0000
  16 Ar_a:4f2+  -2.2855   0.0000  -0.0000   0.0000   2.2390
  17 Ar_a:4f0   -0.0000   1.1832  -0.0000  -0.8091   0.0000
  18 Ar_a:4f2+   1.1832  -0.0000   0.0000  -0.0000  -0.8091

 Molecular orbitals for symmetry species 6  (B2g)
 ------------------------------------------------

    Orbital         1        2        3        4        5        6        7
   1 Ar_a:3d1+   0.0008  -0.0313   0.0000   0.0000   0.0458   0.0000  -0.0000
   2 Ar_a:3d1+   0.0193  -0.0217   0.0000   0.0000   0.1904   0.0000  -0.0000
   3 Ar_a:3d1+  -0.0201  -0.2169  -0.0000   0.0000   0.0615  -0.0000  -0.0000
   4 Ar_a:3d1+   0.1474   0.1260  -0.0000   0.0000   1.2904  -0.0000   0.0000
   5 Ar_a:3d1+  -0.3446  -1.3730   0.0000   0.0000  -1.4526   0.0000   0.0000
   6 Ar_a:3d1+   1.1855   0.7905  -0.0000  -0.0000   0.5572  -0.0000   0.0000
   7 Ar_a:5g1+  -0.0000   0.0000  -0.0000   0.0345  -0.0000  -0.0000  -0.0940
   8 Ar_a:5g3+   0.0000  -0.0000   0.0345   0.0000   0.0000  -0.0940  -0.0000
   9 Ar_a:5g1+   0.0000  -0.0000   0.0000  -0.1885   0.0000   0.0000   0.4706
  10 Ar_a:5g3+  -0.0000   0.0000  -0.1885  -0.0000  -0.0000   0.4706   0.0000
  11 Ar_a:5g1+  -0.0000   0.0000  -0.0000   0.5754  -0.0000  -0.0000  -1.8280
  12 Ar_a:5g3+   0.0000  -0.0000   0.5754   0.0000   0.0000  -1.8280  -0.0000
  13 Ar_a:5g1+   0.0000  -0.0000   0.0000  -1.3236   0.0000   0.0000   0.9134
  14 Ar_a:5g3+  -0.0000   0.0000  -1.3236  -0.0000  -0.0000   0.9134   0.0000

    Orbital         8        9       10
   1 Ar_a:3d1+  -0.1692  -0.0000   0.0000
   2 Ar_a:3d1+  -0.0409  -0.0000   0.0000
   3 Ar_a:3d1+  -1.3781  -0.0000   0.0000
   4 Ar_a:3d1+   1.8910  -0.0000  -0.0000
   5 Ar_a:3d1+  -1.0647  -0.0000   0.0000
   6 Ar_a:3d1+   0.3487   0.0000  -0.0000
   7 Ar_a:5g1+   0.0000  -0.1750  -0.0000
   8 Ar_a:5g3+  -0.0000  -0.0000  -0.1750
   9 Ar_a:5g1+  -0.0000   1.7962   0.0000
  10 Ar_a:5g3+   0.0000   0.0000   1.7962
  11 Ar_a:5g1+   0.0000  -1.5179  -0.0000
  12 Ar_a:5g3+  -0.0000  -0.0000  -1.5179
  13 Ar_a:5g1+  -0.0000   0.5515   0.0000
  14 Ar_a:5g3+   0.0000   0.0000   0.5515

 Molecular orbitals for symmetry species 7  (B3g)
 ------------------------------------------------

    Orbital         1        2        3        4        5        6        7
   1 Ar_a:3d1-   0.0008  -0.0313  -0.0000   0.0000   0.0458   0.0000  -0.0000
   2 Ar_a:3d1-   0.0193  -0.0217  -0.0000   0.0000   0.1904   0.0000  -0.0000
   3 Ar_a:3d1-  -0.0201  -0.2169  -0.0000   0.0000   0.0615   0.0000  -0.0000
   4 Ar_a:3d1-   0.1474   0.1260   0.0000   0.0000   1.2904  -0.0000   0.0000
   5 Ar_a:3d1-  -0.3446  -1.3730   0.0000  -0.0000  -1.4526   0.0000  -0.0000
   6 Ar_a:3d1-   1.1855   0.7905  -0.0000   0.0000   0.5572  -0.0000   0.0000
   7 Ar_a:5g3-   0.0000  -0.0000   0.0345   0.0000   0.0000  -0.0940  -0.0000
   8 Ar_a:5g1-   0.0000  -0.0000   0.0000   0.0345   0.0000  -0.0000  -0.0940
   9 Ar_a:5g3-  -0.0000   0.0000  -0.1885  -0.0000  -0.0000   0.4706   0.0000
  10 Ar_a:5g1-   0.0000  -0.0000  -0.0000  -0.1885   0.0000   0.0000   0.4706
  11 Ar_a:5g3-   0.0000  -0.0000   0.5754   0.0000   0.0000  -1.8280  -0.0000
  12 Ar_a:5g1-  -0.0000   0.0000   0.0000   0.5754  -0.0000  -0.0000  -1.8280
  13 Ar_a:5g3-  -0.0000   0.0000  -1.3236  -0.0000  -0.0000   0.9134   0.0000
  14 Ar_a:5g1-   0.0000  -0.0000  -0.0000  -1.3236   0.0000   0.0000   0.9134

    Orbital         8        9       10
   1 Ar_a:3d1-  -0.1692   0.0000  -0.0000
   2 Ar_a:3d1-  -0.0409   0.0000   0.0000
   3 Ar_a:3d1-  -1.3781   0.0000   0.0000
   4 Ar_a:3d1-   1.8910  -0.0000  -0.0000
   5 Ar_a:3d1-  -1.0647   0.0000  -0.0000
   6 Ar_a:3d1-   0.3487  -0.0000  -0.0000
   7 Ar_a:5g3-  -0.0000  -0.1750  -0.0000
   8 Ar_a:5g1-  -0.0000   0.0000  -0.1750
   9 Ar_a:5g3-   0.0000   1.7962   0.0000
  10 Ar_a:5g1-  -0.0000  -0.0000   1.7962
  11 Ar_a:5g3-  -0.0000  -1.5179  -0.0000
  12 Ar_a:5g1-   0.0000   0.0000  -1.5179
  13 Ar_a:5g3-   0.0000   0.5515   0.0000
  14 Ar_a:5g1-  -0.0000  -0.0000   0.5515

 Molecular orbitals for symmetry species 8  (Au )
 ------------------------------------------------

    Orbital         1        2        3        4        5        6        7
   1 Ar_a:4f2-  -0.0324  -0.0599   0.2004   0.0000   0.0000  -0.1901   0.0000
   2 Ar_a:4f2-   0.1228   0.3080  -0.5731   0.0000   0.0000   2.2130   0.0000
   3 Ar_a:4f2-  -0.3734  -0.8366   2.4784   0.0000   0.0000  -2.6485   0.0000
   4 Ar_a:4f2-   0.8444   2.2855  -2.2390   0.0000   0.0000   1.6266   0.0000
   5 Ar_a:4f2-  -1.4774  -1.1832   0.8091   0.0000   0.0000  -0.5252   0.0000
   6 Ar_a:6h4-   0.0000   0.0000   0.0000   0.0000   0.2485   0.0000   0.0000
   7 Ar_a:6h2-   0.0000   0.0000   0.0000   0.2485   0.0000   0.0000   0.5432
   8 Ar_a:6h4-   0.0000   0.0000   0.0000   0.0000  -0.8514   0.0000   0.0000
   9 Ar_a:6h2-   0.0000   0.0000   0.0000  -0.8514   0.0000   0.0000  -2.1821
  10 Ar_a:6h4-   0.0000   0.0000   0.0000   0.0000   1.5136   0.0000   0.0000
  11 Ar_a:6h2-   0.0000   0.0000   0.0000   1.5136   0.0000   0.0000   1.1681

    Orbital         8        9       10
   1 Ar_a:4f2-   0.0000   1.9892   0.0000
   2 Ar_a:4f2-   0.0000  -2.6747   0.0000
   3 Ar_a:4f2-   0.0000   1.9721   0.0000
   4 Ar_a:4f2-   0.0000  -1.0524   0.0000
   5 Ar_a:4f2-   0.0000   0.3316   0.0000
   6 Ar_a:6h4-  -0.5432   0.0000   0.0000
   7 Ar_a:6h2-   0.0000   0.0000   1.9792
   8 Ar_a:6h4-   2.1821   0.0000   0.0000
   9 Ar_a:6h2-   0.0000   0.0000  -2.0465
  10 Ar_a:6h4-  -1.1681   0.0000   0.0000
  11 Ar_a:6h2-   0.0000   0.0000   0.7865

  Total CPU  time used in SIRIUS :   0.75 seconds
  Total wall time used in SIRIUS :   0.76 seconds

 
     Date and time (Linux)  : Wed Jan 11 14:14:56 2023
     Host name              : cn021                                   


                     .---------------------------------------.
                     | End of Wave Function Section (SIRIUS) |
                     `---------------------------------------'



                 .------------------------------------------------.
                 | Starting in Dynamic Property Section (RESPONS) |
                 `------------------------------------------------'


 ----------------------------------------------------------------------------------------
  RESPONSE  -  an MCSCF, MC-srDFT, DFT, SOPPA and SOPPA-srDFT response property program
 ----------------------------------------------------------------------------------------


 -------- OUTPUT FROM RESPONSE INPUT PROCESSING --------




 Linear Response calculation
 ---------------------------

 Print level                                    : IPRLR  =   2
 Maximum number of iterations                   : MAXITL =  60
 Threshold for relative convergence             : THCLR  = 1.000D-03
 Maximum iterations in optimal orbital algorithm: MAXITO =   5

  9 B-frequencies  0.000000D+00  3.011900D-02  6.023800D-02  9.035700D-02  1.204760D-01
  1.505950D-01  1.807140D-01  2.108330D-01  2.409520D-01

    1 second order properties calculated with symmetry no.    2 and labels:

          XDIPLEN 

    1 second order properties calculated with symmetry no.    3 and labels:

          YDIPLEN 

    1 second order properties calculated with symmetry no.    5 and labels:

          ZDIPLEN 


   SCF energy         :     -526.817349344077456
 -- inactive part     :     -526.817349344077456
 -- nuclear repulsion :        0.000000000000000


                     ***************************************
                     *** RHF response calculation (TDHF) ***
                     ***************************************

 ----------------------------------------------------------------
 ----- Linear response calculation
 ----- Symmetry of excitation/property operator(s)    2  ( B3u)
 ----------------------------------------------------------------

 Number of excitations of this symmetry            0
 Number of response properties of this symmetry    1
 Number of C6/C8 properties of this symmetry       0


 Perturbation symmetry.     KSYMOP:           2
 Perturbation spin symmetry.TRPLET:           F
 Orbital variables.         KZWOPT:         191
 Configuration variables.   KZCONF:           0
 Total number of variables. KZVAR :         191


 RSPLR -- linear response calculation for symmetry 2  ( B3u)
 RSPLR -- operator label : XDIPLEN 
 RSPLR -- operator spin  :   0
 RSPLR -- frequencies    :     0.000000  0.030119  0.060238  0.090357  0.120476
                               0.150595  0.180714  0.210833  0.240952



 ---  SOLVING SETS OF LINEAR EQUATIONS FOR LINEAR RESPONSE PROPERTIES ---

 Operator symmetry = 2  ( B3u); triplet =   F


 ** RSPCTL MICROITERATION NUMBER    1

       No.  Residual tot.,    conf., and orb.    Bnorm      Frequency 
      ----------------------------------------------------------------
         1    9.18503D-01  0.00D+00  9.19D-01  2.55D+00    0.00000D+00
         2    9.20385D-01  0.00D+00  9.20D-01  2.56D+00    3.01190D-02
         3    9.26095D-01  0.00D+00  9.26D-01  2.60D+00    6.02380D-02
         4    9.35834D-01  0.00D+00  9.36D-01  2.65D+00    9.03570D-02
         5    9.49963D-01  0.00D+00  9.50D-01  2.73D+00    1.20476D-01
         6    9.69047D-01  0.00D+00  9.69D-01  2.85D+00    1.50595D-01
         7    9.93939D-01  0.00D+00  9.94D-01  2.99D+00    1.80714D-01
         8    1.02593D+00  0.00D+00  1.03D+00  3.18D+00    2.10833D-01
         9    1.06700D+00  0.00D+00  1.07D+00  3.43D+00    2.40952D-01

 ** RSPCTL MICROITERATION NUMBER    2

       No.  Residual tot.,    conf., and orb.    Bnorm      Frequency 
      ----------------------------------------------------------------
         1    3.82527D-02  0.00D+00  3.83D-02  2.61D+00    0.00000D+00
         2    3.83439D-02  0.00D+00  3.83D-02  2.62D+00    3.01190D-02
         3    3.86201D-02  0.00D+00  3.86D-02  2.65D+00    6.02380D-02
         4    3.90903D-02  0.00D+00  3.91D-02  2.71D+00    9.03570D-02
         5    3.97701D-02  0.00D+00  3.98D-02  2.79D+00    1.20476D-01
         6    4.06839D-02  0.00D+00  4.07D-02  2.91D+00    1.50595D-01
         7    4.18678D-02  0.00D+00  4.19D-02  3.06D+00    1.80714D-01
         8    4.33756D-02  0.00D+00  4.34D-02  3.26D+00    2.10833D-01
         9    4.52886D-02  0.00D+00  4.53D-02  3.52D+00    2.40952D-01

 ** RSPCTL MICROITERATION NUMBER    3

       No.  Residual tot.,    conf., and orb.    Bnorm      Frequency 
      ----------------------------------------------------------------
         1    8.59686D-04  0.00D+00  8.60D-04  2.61D+00    0.00000D+00
         2    8.61713D-04  0.00D+00  8.62D-04  2.62D+00    3.01190D-02
         3    8.67855D-04  0.00D+00  8.68D-04  2.65D+00    6.02380D-02
         4    8.78303D-04  0.00D+00  8.78D-04  2.71D+00    9.03570D-02
         5    8.93396D-04  0.00D+00  8.93D-04  2.79D+00    1.20476D-01
         6    9.13672D-04  0.00D+00  9.14D-04  2.91D+00    1.50595D-01
         7    9.39939D-04  0.00D+00  9.40D-04  3.06D+00    1.80714D-01
         8    9.73418D-04  0.00D+00  9.73D-04  3.26D+00    2.10833D-01
         9    1.01601D-03  0.00D+00  1.02D-03  3.52D+00    2.40952D-01

 *** THE REQUESTED    9 SOLUTION VECTORS CONVERGED

 Convergence of RSP solution vectors, threshold = 1.00D-03
 ---------------------------------------------------------------
 (dimension of paired reduced space:   54)
 RSP solution vector no.    1; norm of residual   3.30D-04
 RSP solution vector no.    2; norm of residual   3.29D-04
 RSP solution vector no.    3; norm of residual   3.27D-04
 RSP solution vector no.    4; norm of residual   3.24D-04
 RSP solution vector no.    5; norm of residual   3.20D-04
 RSP solution vector no.    6; norm of residual   3.14D-04
 RSP solution vector no.    7; norm of residual   3.07D-04
 RSP solution vector no.    8; norm of residual   2.99D-04
 RSP solution vector no.    9; norm of residual   2.89D-04

 *** RSPCTL MICROITERATIONS CONVERGED


           Final output of second order properties from linear response
           ------------------------------------------------------------


@ Spin symmetry of operators: singlet

 Note that minus the linear response function: - << A; B >>(omega) is printed.
 The results are of quadratic accuracy using Sellers formula.

@ FREQUENCY INDEPENDENT SECOND ORDER PROPERTIES

@ -<< XDIPLEN  ; XDIPLEN  >> =  1.075032094636E+01

@ FREQUENCY DEPENDENT SECOND ORDER PROPERTIES WITH FREQUENCY :

@    a.u.:  3.0119000D-02
@    cm-1:  6.6103564D+03
@    eV  :  8.1957968D-01
@  kJ/mol:  7.9077422D+01
@    nm  :  1.5127777D+03

@ -<< XDIPLEN  ; XDIPLEN  >> =  1.077342690251E+01

@ FREQUENCY DEPENDENT SECOND ORDER PROPERTIES WITH FREQUENCY :

@    a.u.:  6.0238000D-02
@    cm-1:  1.3220713D+04
@    eV  :  1.6391594D+00
@  kJ/mol:  1.5815484D+02
@    nm  :  7.5638887D+02

@ -<< XDIPLEN  ; XDIPLEN  >> =  1.084354492190E+01

@ FREQUENCY DEPENDENT SECOND ORDER PROPERTIES WITH FREQUENCY :

@    a.u.:  9.0357000D-02
@    cm-1:  1.9831069D+04
@    eV  :  2.4587390D+00
@  kJ/mol:  2.3723227D+02
@    nm  :  5.0425925D+02

@ -<< XDIPLEN  ; XDIPLEN  >> =  1.096316065624E+01

@ FREQUENCY DEPENDENT SECOND ORDER PROPERTIES WITH FREQUENCY :

@    a.u.:  1.2047600D-01
@    cm-1:  2.6441425D+04
@    eV  :  3.2783187D+00
@  kJ/mol:  3.1630969D+02
@    nm  :  3.7819444D+02

@ -<< XDIPLEN  ; XDIPLEN  >> =  1.113672044171E+01

@ FREQUENCY DEPENDENT SECOND ORDER PROPERTIES WITH FREQUENCY :

@    a.u.:  1.5059500D-01
@    cm-1:  3.3051782D+04
@    eV  :  4.0978984D+00
@  kJ/mol:  3.9538711D+02
@    nm  :  3.0255555D+02

@ -<< XDIPLEN  ; XDIPLEN  >> =  1.137116331411E+01

@ FREQUENCY DEPENDENT SECOND ORDER PROPERTIES WITH FREQUENCY :

@    a.u.:  1.8071400D-01
@    cm-1:  3.9662138D+04
@    eV  :  4.9174781D+00
@  kJ/mol:  4.7446453D+02
@    nm  :  2.5212962D+02

@ -<< XDIPLEN  ; XDIPLEN  >> =  1.167685361837E+01

@ FREQUENCY DEPENDENT SECOND ORDER PROPERTIES WITH FREQUENCY :

@    a.u.:  2.1083300D-01
@    cm-1:  4.6272495D+04
@    eV  :  5.7370578D+00
@  kJ/mol:  5.5354196D+02
@    nm  :  2.1611111D+02

@ -<< XDIPLEN  ; XDIPLEN  >> =  1.206920778055E+01

@ FREQUENCY DEPENDENT SECOND ORDER PROPERTIES WITH FREQUENCY :

@    a.u.:  2.4095200D-01
@    cm-1:  5.2882851D+04
@    eV  :  6.5566374D+00
@  kJ/mol:  6.3261938D+02
@    nm  :  1.8909722D+02

@ -<< XDIPLEN  ; XDIPLEN  >> =  1.257163723770E+01


 Time used in linear response calculation is      3.12 CPU seconds for symmetry 2
 ----------------------------------------------------------------
 ----- Linear response calculation
 ----- Symmetry of excitation/property operator(s)    3  ( B2u)
 ----------------------------------------------------------------

 Number of excitations of this symmetry            0
 Number of response properties of this symmetry    1
 Number of C6/C8 properties of this symmetry       0


 Perturbation symmetry.     KSYMOP:           3
 Perturbation spin symmetry.TRPLET:           F
 Orbital variables.         KZWOPT:         191
 Configuration variables.   KZCONF:           0
 Total number of variables. KZVAR :         191


 RSPLR -- linear response calculation for symmetry 3  ( B2u)
 RSPLR -- operator label : YDIPLEN 
 RSPLR -- operator spin  :   0
 RSPLR -- frequencies    :     0.000000  0.030119  0.060238  0.090357  0.120476
                               0.150595  0.180714  0.210833  0.240952



 ---  SOLVING SETS OF LINEAR EQUATIONS FOR LINEAR RESPONSE PROPERTIES ---

 Operator symmetry = 3  ( B2u); triplet =   F


 ** RSPCTL MICROITERATION NUMBER    1

       No.  Residual tot.,    conf., and orb.    Bnorm      Frequency 
      ----------------------------------------------------------------
         1    8.84797D-01  0.00D+00  8.85D-01  2.55D+00    0.00000D+00
         2    8.86635D-01  0.00D+00  8.87D-01  2.56D+00    3.01190D-02
         3    8.92211D-01  0.00D+00  8.92D-01  2.60D+00    6.02380D-02
         4    9.01723D-01  0.00D+00  9.02D-01  2.65D+00    9.03570D-02
         5    9.15524D-01  0.00D+00  9.16D-01  2.73D+00    1.20476D-01
         6    9.34171D-01  0.00D+00  9.34D-01  2.85D+00    1.50595D-01
         7    9.58501D-01  0.00D+00  9.59D-01  2.99D+00    1.80714D-01
         8    9.89780D-01  0.00D+00  9.90D-01  3.19D+00    2.10833D-01
         9    1.02997D+00  0.00D+00  1.03D+00  3.44D+00    2.40952D-01

 ** RSPCTL MICROITERATION NUMBER    2

       No.  Residual tot.,    conf., and orb.    Bnorm      Frequency 
      ----------------------------------------------------------------
         1    4.00911D-02  0.00D+00  4.01D-02  2.61D+00    0.00000D+00
         2    4.01856D-02  0.00D+00  4.02D-02  2.62D+00    3.01190D-02
         3    4.04721D-02  0.00D+00  4.05D-02  2.65D+00    6.02380D-02
         4    4.09594D-02  0.00D+00  4.10D-02  2.71D+00    9.03570D-02
         5    4.16638D-02  0.00D+00  4.17D-02  2.79D+00    1.20476D-01
         6    4.26100D-02  0.00D+00  4.26D-02  2.91D+00    1.50595D-01
         7    4.38352D-02  0.00D+00  4.38D-02  3.06D+00    1.80714D-01
         8    4.53944D-02  0.00D+00  4.54D-02  3.26D+00    2.10833D-01
         9    4.73711D-02  0.00D+00  4.74D-02  3.52D+00    2.40952D-01

 ** RSPCTL MICROITERATION NUMBER    3

       No.  Residual tot.,    conf., and orb.    Bnorm      Frequency 
      ----------------------------------------------------------------
         1    1.57738D-03  0.00D+00  1.58D-03  2.61D+00    0.00000D+00
         2    1.59000D-03  0.00D+00  1.59D-03  2.62D+00    3.01190D-02
         3    1.62807D-03  0.00D+00  1.63D-03  2.65D+00    6.02380D-02
         4    1.69232D-03  0.00D+00  1.69D-03  2.71D+00    9.03570D-02
         5    1.78412D-03  0.00D+00  1.78D-03  2.79D+00    1.20476D-01
         6    1.90587D-03  0.00D+00  1.91D-03  2.91D+00    1.50595D-01
         7    2.06151D-03  0.00D+00  2.06D-03  3.06D+00    1.80714D-01
         8    2.25732D-03  0.00D+00  2.26D-03  3.26D+00    2.10833D-01
         9    2.50336D-03  0.00D+00  2.50D-03  3.52D+00    2.40952D-01

 *** THE REQUESTED    9 SOLUTION VECTORS CONVERGED

 Convergence of RSP solution vectors, threshold = 1.00D-03
 ---------------------------------------------------------------
 (dimension of paired reduced space:   54)
 RSP solution vector no.    1; norm of residual   6.05D-04
 RSP solution vector no.    2; norm of residual   6.08D-04
 RSP solution vector no.    3; norm of residual   6.14D-04
 RSP solution vector no.    4; norm of residual   6.25D-04
 RSP solution vector no.    5; norm of residual   6.39D-04
 RSP solution vector no.    6; norm of residual   6.55D-04
 RSP solution vector no.    7; norm of residual   6.73D-04
 RSP solution vector no.    8; norm of residual   6.93D-04
 RSP solution vector no.    9; norm of residual   7.11D-04

 *** RSPCTL MICROITERATIONS CONVERGED


           Final output of second order properties from linear response
           ------------------------------------------------------------


@ Spin symmetry of operators: singlet

 Note that minus the linear response function: - << A; B >>(omega) is printed.
 The results are of quadratic accuracy using Sellers formula.

@ FREQUENCY INDEPENDENT SECOND ORDER PROPERTIES

@ -<< YDIPLEN  ; YDIPLEN  >> =  1.075032085864E+01

@ FREQUENCY DEPENDENT SECOND ORDER PROPERTIES WITH FREQUENCY :

@    a.u.:  3.0119000D-02
@    cm-1:  6.6103564D+03
@    eV  :  8.1957968D-01
@  kJ/mol:  7.9077422D+01
@    nm  :  1.5127777D+03

@ -<< YDIPLEN  ; YDIPLEN  >> =  1.077342681352E+01

@ FREQUENCY DEPENDENT SECOND ORDER PROPERTIES WITH FREQUENCY :

@    a.u.:  6.0238000D-02
@    cm-1:  1.3220713D+04
@    eV  :  1.6391594D+00
@  kJ/mol:  1.5815484D+02
@    nm  :  7.5638887D+02

@ -<< YDIPLEN  ; YDIPLEN  >> =  1.084354482900E+01

@ FREQUENCY DEPENDENT SECOND ORDER PROPERTIES WITH FREQUENCY :

@    a.u.:  9.0357000D-02
@    cm-1:  1.9831069D+04
@    eV  :  2.4587390D+00
@  kJ/mol:  2.3723227D+02
@    nm  :  5.0425925D+02

@ -<< YDIPLEN  ; YDIPLEN  >> =  1.096316055654E+01

@ FREQUENCY DEPENDENT SECOND ORDER PROPERTIES WITH FREQUENCY :

@    a.u.:  1.2047600D-01
@    cm-1:  2.6441425D+04
@    eV  :  3.2783187D+00
@  kJ/mol:  3.1630969D+02
@    nm  :  3.7819444D+02

@ -<< YDIPLEN  ; YDIPLEN  >> =  1.113672033180E+01

@ FREQUENCY DEPENDENT SECOND ORDER PROPERTIES WITH FREQUENCY :

@    a.u.:  1.5059500D-01
@    cm-1:  3.3051782D+04
@    eV  :  4.0978984D+00
@  kJ/mol:  3.9538711D+02
@    nm  :  3.0255555D+02

@ -<< YDIPLEN  ; YDIPLEN  >> =  1.137116318979E+01

@ FREQUENCY DEPENDENT SECOND ORDER PROPERTIES WITH FREQUENCY :

@    a.u.:  1.8071400D-01
@    cm-1:  3.9662138D+04
@    eV  :  4.9174781D+00
@  kJ/mol:  4.7446453D+02
@    nm  :  2.5212962D+02

@ -<< YDIPLEN  ; YDIPLEN  >> =  1.167685347417E+01

@ FREQUENCY DEPENDENT SECOND ORDER PROPERTIES WITH FREQUENCY :

@    a.u.:  2.1083300D-01
@    cm-1:  4.6272495D+04
@    eV  :  5.7370578D+00
@  kJ/mol:  5.5354196D+02
@    nm  :  2.1611111D+02

@ -<< YDIPLEN  ; YDIPLEN  >> =  1.206920760901E+01

@ FREQUENCY DEPENDENT SECOND ORDER PROPERTIES WITH FREQUENCY :

@    a.u.:  2.4095200D-01
@    cm-1:  5.2882851D+04
@    eV  :  6.5566374D+00
@  kJ/mol:  6.3261938D+02
@    nm  :  1.8909722D+02

@ -<< YDIPLEN  ; YDIPLEN  >> =  1.257163702810E+01


 Time used in linear response calculation is      3.10 CPU seconds for symmetry 3
 ----------------------------------------------------------------
 ----- Linear response calculation
 ----- Symmetry of excitation/property operator(s)    5  ( B1u)
 ----------------------------------------------------------------

 Number of excitations of this symmetry            0
 Number of response properties of this symmetry    1
 Number of C6/C8 properties of this symmetry       0


 Perturbation symmetry.     KSYMOP:           5
 Perturbation spin symmetry.TRPLET:           F
 Orbital variables.         KZWOPT:         191
 Configuration variables.   KZCONF:           0
 Total number of variables. KZVAR :         191


 RSPLR -- linear response calculation for symmetry 5  ( B1u)
 RSPLR -- operator label : ZDIPLEN 
 RSPLR -- operator spin  :   0
 RSPLR -- frequencies    :     0.000000  0.030119  0.060238  0.090357  0.120476
                               0.150595  0.180714  0.210833  0.240952



 ---  SOLVING SETS OF LINEAR EQUATIONS FOR LINEAR RESPONSE PROPERTIES ---

 Operator symmetry = 5  ( B1u); triplet =   F


 ** RSPCTL MICROITERATION NUMBER    1

       No.  Residual tot.,    conf., and orb.    Bnorm      Frequency 
      ----------------------------------------------------------------
         1    1.07606D+00  0.00D+00  1.08D+00  2.55D+00    0.00000D+00
         2    1.07794D+00  0.00D+00  1.08D+00  2.56D+00    3.01190D-02
         3    1.08365D+00  0.00D+00  1.08D+00  2.60D+00    6.02380D-02
         4    1.09337D+00  0.00D+00  1.09D+00  2.65D+00    9.03570D-02
         5    1.10741D+00  0.00D+00  1.11D+00  2.74D+00    1.20476D-01
         6    1.12628D+00  0.00D+00  1.13D+00  2.85D+00    1.50595D-01
         7    1.15072D+00  0.00D+00  1.15D+00  2.99D+00    1.80714D-01
         8    1.18185D+00  0.00D+00  1.18D+00  3.19D+00    2.10833D-01
         9    1.22137D+00  0.00D+00  1.22D+00  3.44D+00    2.40952D-01

 ** RSPCTL MICROITERATION NUMBER    2

       No.  Residual tot.,    conf., and orb.    Bnorm      Frequency 
      ----------------------------------------------------------------
         1    4.00140D-02  0.00D+00  4.00D-02  2.61D+00    0.00000D+00
         2    4.01150D-02  0.00D+00  4.01D-02  2.62D+00    3.01190D-02
         3    4.04213D-02  0.00D+00  4.04D-02  2.65D+00    6.02380D-02
         4    4.09422D-02  0.00D+00  4.09D-02  2.71D+00    9.03570D-02
         5    4.16948D-02  0.00D+00  4.17D-02  2.79D+00    1.20476D-01
         6    4.27054D-02  0.00D+00  4.27D-02  2.91D+00    1.50595D-01
         7    4.40131D-02  0.00D+00  4.40D-02  3.06D+00    1.80714D-01
         8    4.56757D-02  0.00D+00  4.57D-02  3.26D+00    2.10833D-01
         9    4.77807D-02  0.00D+00  4.78D-02  3.52D+00    2.40952D-01

 ** RSPCTL MICROITERATION NUMBER    3

       No.  Residual tot.,    conf., and orb.    Bnorm      Frequency 
      ----------------------------------------------------------------
         1    2.77553D-03  0.00D+00  2.78D-03  2.61D+00    0.00000D+00
         2    2.78549D-03  0.00D+00  2.79D-03  2.62D+00    3.01190D-02
         3    2.81576D-03  0.00D+00  2.82D-03  2.65D+00    6.02380D-02
         4    2.86748D-03  0.00D+00  2.87D-03  2.71D+00    9.03570D-02
         5    2.94274D-03  0.00D+00  2.94D-03  2.79D+00    1.20476D-01
         6    3.04482D-03  0.00D+00  3.04D-03  2.91D+00    1.50595D-01
         7    3.17862D-03  0.00D+00  3.18D-03  3.06D+00    1.80714D-01
         8    3.35148D-03  0.00D+00  3.35D-03  3.26D+00    2.10833D-01
         9    3.57466D-03  0.00D+00  3.57D-03  3.52D+00    2.40952D-01

 ** RSPCTL MICROITERATION NUMBER    4

       No.  Residual tot.,    conf., and orb.    Bnorm      Frequency 
      ----------------------------------------------------------------
         1    1.49703D-04  0.00D+00  1.50D-04  2.61D+00    0.00000D+00
         2    1.50449D-04  0.00D+00  1.50D-04  2.62D+00    3.01190D-02
         3    1.52713D-04  0.00D+00  1.53D-04  2.65D+00    6.02380D-02
         4    1.56568D-04  0.00D+00  1.57D-04  2.71D+00    9.03570D-02
         5    1.62149D-04  0.00D+00  1.62D-04  2.79D+00    1.20476D-01
         6    1.69667D-04  0.00D+00  1.70D-04  2.91D+00    1.50595D-01
         7    1.79437D-04  0.00D+00  1.79D-04  3.06D+00    1.80714D-01
         8    1.91929D-04  0.00D+00  1.92D-04  3.26D+00    2.10833D-01
         9    2.07865D-04  0.00D+00  2.08D-04  3.52D+00    2.40952D-01

 *** THE REQUESTED    9 SOLUTION VECTORS CONVERGED

 Convergence of RSP solution vectors, threshold = 1.00D-03
 ---------------------------------------------------------------
 (dimension of paired reduced space:   72)
 RSP solution vector no.    1; norm of residual   5.75D-05
 RSP solution vector no.    2; norm of residual   5.75D-05
 RSP solution vector no.    3; norm of residual   5.76D-05
 RSP solution vector no.    4; norm of residual   5.78D-05
 RSP solution vector no.    5; norm of residual   5.80D-05
 RSP solution vector no.    6; norm of residual   5.83D-05
 RSP solution vector no.    7; norm of residual   5.86D-05
 RSP solution vector no.    8; norm of residual   5.89D-05
 RSP solution vector no.    9; norm of residual   5.91D-05

 *** RSPCTL MICROITERATIONS CONVERGED


           Final output of second order properties from linear response
           ------------------------------------------------------------


@ Spin symmetry of operators: singlet

 Note that minus the linear response function: - << A; B >>(omega) is printed.
 The results are of quadratic accuracy using Sellers formula.

@ FREQUENCY INDEPENDENT SECOND ORDER PROPERTIES

@ -<< ZDIPLEN  ; ZDIPLEN  >> =  1.075032096120E+01

@ FREQUENCY DEPENDENT SECOND ORDER PROPERTIES WITH FREQUENCY :

@    a.u.:  3.0119000D-02
@    cm-1:  6.6103564D+03
@    eV  :  8.1957968D-01
@  kJ/mol:  7.9077422D+01
@    nm  :  1.5127777D+03

@ -<< ZDIPLEN  ; ZDIPLEN  >> =  1.077342691754E+01

@ FREQUENCY DEPENDENT SECOND ORDER PROPERTIES WITH FREQUENCY :

@    a.u.:  6.0238000D-02
@    cm-1:  1.3220713D+04
@    eV  :  1.6391594D+00
@  kJ/mol:  1.5815484D+02
@    nm  :  7.5638887D+02

@ -<< ZDIPLEN  ; ZDIPLEN  >> =  1.084354493748E+01

@ FREQUENCY DEPENDENT SECOND ORDER PROPERTIES WITH FREQUENCY :

@    a.u.:  9.0357000D-02
@    cm-1:  1.9831069D+04
@    eV  :  2.4587390D+00
@  kJ/mol:  2.3723227D+02
@    nm  :  5.0425925D+02

@ -<< ZDIPLEN  ; ZDIPLEN  >> =  1.096316067282E+01

@ FREQUENCY DEPENDENT SECOND ORDER PROPERTIES WITH FREQUENCY :

@    a.u.:  1.2047600D-01
@    cm-1:  2.6441425D+04
@    eV  :  3.2783187D+00
@  kJ/mol:  3.1630969D+02
@    nm  :  3.7819444D+02

@ -<< ZDIPLEN  ; ZDIPLEN  >> =  1.113672045977E+01

@ FREQUENCY DEPENDENT SECOND ORDER PROPERTIES WITH FREQUENCY :

@    a.u.:  1.5059500D-01
@    cm-1:  3.3051782D+04
@    eV  :  4.0978984D+00
@  kJ/mol:  3.9538711D+02
@    nm  :  3.0255555D+02

@ -<< ZDIPLEN  ; ZDIPLEN  >> =  1.137116333427E+01

@ FREQUENCY DEPENDENT SECOND ORDER PROPERTIES WITH FREQUENCY :

@    a.u.:  1.8071400D-01
@    cm-1:  3.9662138D+04
@    eV  :  4.9174781D+00
@  kJ/mol:  4.7446453D+02
@    nm  :  2.5212962D+02

@ -<< ZDIPLEN  ; ZDIPLEN  >> =  1.167685364145E+01

@ FREQUENCY DEPENDENT SECOND ORDER PROPERTIES WITH FREQUENCY :

@    a.u.:  2.1083300D-01
@    cm-1:  4.6272495D+04
@    eV  :  5.7370578D+00
@  kJ/mol:  5.5354196D+02
@    nm  :  2.1611111D+02

@ -<< ZDIPLEN  ; ZDIPLEN  >> =  1.206920780766E+01

@ FREQUENCY DEPENDENT SECOND ORDER PROPERTIES WITH FREQUENCY :

@    a.u.:  2.4095200D-01
@    cm-1:  5.2882851D+04
@    eV  :  6.5566374D+00
@  kJ/mol:  6.3261938D+02
@    nm  :  1.8909722D+02

@ -<< ZDIPLEN  ; ZDIPLEN  >> =  1.257163727047E+01


 Time used in linear response calculation is      4.15 CPU seconds for symmetry 5

  Total CPU  time used in RESPONSE:  10.37 seconds
  Total wall time used in RESPONSE:  10.39 seconds


                   .-------------------------------------------.
                   | End of Dynamic Property Section (RESPONS) |
                   `-------------------------------------------'



 PLTORB knows S,P,D,F,G shells. The basis set contains orbital(s) with higher angular momentum,
 and the writing of MOLPLT file is thus abandoned.

  Total CPU  time used in DALTON:  12.04 seconds
  Total wall time used in DALTON:  12.10 seconds

 
     Date and time (Linux)  : Wed Jan 11 14:15:06 2023
     Host name              : cn021                                   
