

     ************************************************************************
     *************** Dalton - An Electronic Structure Program ***************
     ************************************************************************

    This is output from DALTON release Dalton2020.0 (2020)
         ( Web site: http://daltonprogram.org )

   ----------------------------------------------------------------------------

    NOTE:
     
    Dalton is an experimental code for the evaluation of molecular
    properties using (MC)SCF, DFT, CI, and CC wave functions.
    The authors accept no responsibility for the performance of
    the code or for the correctness of the results.
     
    The code (in whole or part) is provided under a licence and
    is not to be reproduced for further distribution without
    the written permission of the authors or their representatives.
     
    See the home page "http://daltonprogram.org" for further information.
     
    If results obtained with this code are published,
    the appropriate citations would be both of:
     
       K. Aidas, C. Angeli, K. L. Bak, V. Bakken, R. Bast,
       L. Boman, O. Christiansen, R. Cimiraglia, S. Coriani,
       P. Dahle, E. K. Dalskov, U. Ekstroem,
       T. Enevoldsen, J. J. Eriksen, P. Ettenhuber, B. Fernandez,
       L. Ferrighi, H. Fliegl, L. Frediani, K. Hald, A. Halkier,
       C. Haettig, H. Heiberg, T. Helgaker, A. C. Hennum,
       H. Hettema, E. Hjertenaes, S. Hoest, I.-M. Hoeyvik,
       M. F. Iozzi, B. Jansik, H. J. Aa. Jensen, D. Jonsson,
       P. Joergensen, J. Kauczor, S. Kirpekar,
       T. Kjaergaard, W. Klopper, S. Knecht, R. Kobayashi, H. Koch,
       J. Kongsted, A. Krapp, K. Kristensen, A. Ligabue,
       O. B. Lutnaes, J. I. Melo, K. V. Mikkelsen, R. H. Myhre,
       C. Neiss, C. B. Nielsen, P. Norman, J. Olsen,
       J. M. H. Olsen, A. Osted, M. J. Packer, F. Pawlowski,
       T. B. Pedersen, P. F. Provasi, S. Reine, Z. Rinkevicius,
       T. A. Ruden, K. Ruud, V. Rybkin, P. Salek, C. C. M. Samson,
       A. Sanchez de Meras, T. Saue, S. P. A. Sauer,
       B. Schimmelpfennig, K. Sneskov, A. H. Steindal,
       K. O. Sylvester-Hvid, P. R. Taylor, A. M. Teale,
       E. I. Tellgren, D. P. Tew, A. J. Thorvaldsen, L. Thoegersen,
       O. Vahtras, M. A. Watson, D. J. D. Wilson, M. Ziolkowski
       and H. Agren,
       "The Dalton quantum chemistry program system",
       WIREs Comput. Mol. Sci. 2014, 4:269–284 (doi: 10.1002/wcms.1172)
     
    and
     
       Dalton, a molecular electronic structure program,
       Release Dalton2020.0 (2020), see http://daltonprogram.org
   ----------------------------------------------------------------------------

    Authors in alphabetical order (Major contribution(s) in parenthesis):

  Kestutis Aidas,           Vilnius University,           Lithuania   (QM/MM)
  Celestino Angeli,         University of Ferrara,        Italy       (NEVPT2)
  Keld L. Bak,              UNI-C,                        Denmark     (AOSOPPA, non-adiabatic coupling, magnetic properties)
  Vebjoern Bakken,          University of Oslo,           Norway      (DALTON; geometry optimizer, symmetry detection)
  Radovan Bast,             UiT The Arctic U. of Norway,  Norway      (DALTON installation and execution frameworks)
  Pablo Baudin,             University of Valencia,       Spain       (Cholesky excitation energies)
  Linus Boman,              NTNU,                         Norway      (Cholesky decomposition and subsystems)
  Bruno N. Cabral Tenorio,  Technical Univ. of Denmark,   Denmark     (Lanczos-based CC methods)
  Ove Christiansen,         Aarhus University,            Denmark     (CC module)
  Renzo Cimiraglia,         University of Ferrara,        Italy       (NEVPT2)
  Sonia Coriani,            Technical Univ. of Denmark,   Denmark     (CC and RESPONS modules)
  Janusz Cukras,            University of Warsaw,         Poland      (MChD in RESPONS)
  Paal Dahle,               University of Oslo,           Norway      (Parallelization)
  Erik K. Dalskov,          UNI-C,                        Denmark     (SOPPA)
  Thomas Enevoldsen,        Univ. of Southern Denmark,    Denmark     (SOPPA)
  Janus J. Eriksen,         Aarhus University,            Denmark     (Polarizable embedding, TDA)
  Rasmus Faber,             Technical Univ. of Denmark,   Denmark     (Vib.avg. NMR w. SOPPA, parallel AO-SOPPA, CVS-CC and EOMCC)
  Tobias Fahleson,          KTH Stockholm,                Sweden      (Damped cubic response)
  Berta Fernandez,          U. of Santiago de Compostela, Spain       (Doublet spin, ESR in RESPONS)
  Lara Ferrighi,            Aarhus University,            Denmark     (PCM Cubic response)
  Heike Fliegl,             University of Oslo,           Norway      (CCSD(R12))
  Luca Frediani,            UiT The Arctic U. of Norway,  Norway      (PCM)
  Emmanuel Fromager,        Univ. Strasbourg,             France      (MC-srDFT)
  Bin Gao,                  UiT The Arctic U. of Norway,  Norway      (Gen1Int library)
  Andre S. P. Gomes,        CNRS/Universite de Lille,     France      (Frozen density embedding)
  Christof Haettig,         Ruhr-University Bochum,       Germany     (CC module)
  Kasper Hald,              Aarhus University,            Denmark     (CC module)
  Asger Halkier,            Aarhus University,            Denmark     (CC module)
  Frederik Beyer Hansen,    University of Copenhagen,     Denmark     (Parallel AO-SOPPA)
  Erik D. Hedegaard,        Univ. of Southern Denmark,    Denmark     (Polarizable embedding, QM/MM, and MC-srDFT)
  Hanne Heiberg,            University of Oslo,           Norway      (Geometry analysis, selected one-electron integrals)
  Trygve Helgaker,          University of Oslo,           Norway      (DALTON; ABACUS, ERI, DFT modules, London, and much more)
  Alf Christian Hennum,     University of Oslo,           Norway      (Parity violation)
  Hinne Hettema,            University of Auckland,       New Zealand (Quadratic response in RESPONS; SIRIUS supersymmetry)
  Eirik Hjertenaes,         NTNU,                         Norway      (Cholesky decomposition)
  Pi A. B. Haase,           University of Copenhagen,     Denmark     (Triplet AO-SOPPA)
  Maria Francesca Iozzi,    University of Oslo,           Norway      (RPA)
  Christoph Jacob           TU Braunschweig               Germany     (Frozen density embedding)
  Brano Jansik              Technical Univ. of Ostrava    Czech Rep.  (DFT cubic response)
  Hans Joergen Aa. Jensen,  Univ. of Southern Denmark,    Denmark     (DALTON; SIRIUS, RESPONS, ABACUS, MC-srDFT, and much more)
  Dan Jonsson,              UiT The Arctic U. of Norway,  Norway      (Cubic response in RESPONS module)
  Poul Joergensen,          Aarhus University,            Denmark     (RESPONS, ABACUS, and CC modules)
  Maciej Kaminski,          University of Warsaw,         Poland      (CPPh in RESPONS)
  Joanna Kauczor,           Linkoeping University,        Sweden      (Complex polarization propagator (CPP) module)
  Sheela Kirpekar,          Univ. of Southern Denmark,    Denmark     (Mass-velocity & Darwin integrals)
  Erik Kjellgren,           Univ. of Southern Denmark,    Denmark     (MC-srDFT)
  Wim Klopper,              KIT Karlsruhe,                Germany     (R12 code in CC, SIRIUS, and ABACUS modules)
  Stefan Knecht,            ETH Zurich,                   Switzerland (Parallel CI and MCSCF, MC-srDFT)
  Rika Kobayashi,           Australian National Univ.,    Australia   (DIIS in CC, London in MCSCF)
  Henrik Koch,              NTNU,                         Norway      (CC module, Cholesky decomposition)
  Jacob Kongsted,           Univ. of Southern Denmark,    Denmark     (Polarizable embedding, polarizable density embedding, QM/MM)
  Andrea Ligabue,           University of Modena,         Italy       (CTOCD, AOSOPPA)
  Nanna H. List             Univ. of Southern Denmark,    Denmark     (Polarizable embedding)
  Ola B. Lutnaes,           University of Oslo,           Norway      (DFT Hessian)
  Juan I. Melo,             University of Buenos Aires,   Argentina   (LRESC, Relativistic Effects on NMR Shieldings)
  Kurt V. Mikkelsen,        University of Copenhagen,     Denmark     (MC-SCRF and QM/MM)
  Rolf H. Myhre,            NTNU,                         Norway      (Subsystems and CC3)
  Christian Neiss,          Univ. Erlangen-Nuernberg,     Germany     (CCSD(R12))
  Christian B. Nielsen,     University of Copenhagen,     Denmark     (QM/MM)
  Patrick Norman,           KTH Stockholm,                Sweden      (Cubic response and complex frequency response in RESPONS)
  Jeppe Olsen,              Aarhus University,            Denmark     (SIRIUS CI/density modules)
  Jogvan Magnus H. Olsen,   Aarhus University,            Denmark     (Polarizable embedding and polarizable density embedding)
  Anders Osted,             Copenhagen University,        Denmark     (QM/MM)
  Martin J. Packer,         University of Sheffield,      UK          (SOPPA)
  Filip Pawlowski,          Kazimierz Wielki University,  Poland      (CC3)
  Morten N. Pedersen,       Univ. of Southern Denmark,    Denmark     (Polarizable embedding)
  Thomas B. Pedersen,       University of Oslo,           Norway      (Cholesky decomposition)
  Patricio F. Provasi,      University of Northeastern,   Argentina   (Analysis of coupling constants in localized orbitals)
  Peter Reinholdt,          Univ. of Southern Denmark,    Denmark     (Polarizable embedding and polarizable density embedding)
  Zilvinas Rinkevicius,     KTH Stockholm,                Sweden      (open-shell DFT, ESR)
  Elias Rudberg,            KTH Stockholm,                Sweden      (DFT grid and basis info)
  Torgeir A. Ruden,         University of Oslo,           Norway      (Numerical derivatives in ABACUS)
  Kenneth Ruud,             UiT The Arctic U. of Norway,  Norway      (DALTON; ABACUS magnetic properties and much more)
  Pawel Salek,              KTH Stockholm,                Sweden      (DALTON; DFT code)
  Claire C. M. Samson       University of Karlsruhe       Germany     (Boys localization, r12 integrals in ERI)
  Alfredo Sanchez de Meras, University of Valencia,       Spain       (CC module, Cholesky decomposition)
  Trond Saue,               Paul Sabatier University,     France      (direct Fock matrix construction)
  Stephan P. A. Sauer,      University of Copenhagen,     Denmark     (SOPPA(CCSD), SOPPA prop., AOSOPPA, vibrational g-factors)
  Bernd Schimmelpfennig,    Forschungszentrum Karlsruhe,  Germany     (AMFI module)
  Anna K. Schnack-Petersen, University of Copenhagen,     Denmark     (RPA(D) and HRPA(D) properties in AOSOPPA)
  Kristian Sneskov,         Aarhus University,            Denmark     (Polarizable embedding, QM/MM)
  Arnfinn H. Steindal,      UiT The Arctic U. of Norway,  Norway      (parallel QM/MM, polarizable embedding)
  Casper Steinmann,         Aalborg University,           Denmark     (QFIT, polarizable embedding)
  K. O. Sylvester-Hvid,     University of Copenhagen,     Denmark     (MC-SCRF)
  Peter R. Taylor,          VLSCI/Univ. of Melbourne,     Australia   (Symmetry handling ABACUS, integral transformation)
  Andrew M. Teale,          University of Nottingham,     England     (DFT-AC, DFT-D)
  David P. Tew,             University of Bristol,        England     (CCSD(R12))
  Julien Toulouse,          Sorbonne Univ.,               France      (MC-srDFT)
  Olav Vahtras,             KTH Stockholm,                Sweden      (Triplet response, spin-orbit, ESR, TDDFT, open-shell DFT)
  Lucas Visscher,           Vrije Universiteit Amsterdam, Netherlands (Frozen density embedding)
  David J. Wilson,          La Trobe University,          Australia   (DFT Hessian and DFT magnetizabilities)
  Hans Agren,               KTH Stockholm,                Sweden      (SIRIUS module, RESPONS, MC-SCRF solvation)
 --------------------------------------------------------------------------------

     Date and time (Linux)  : Wed Jan 11 14:15:18 2023
     Host name              : cn021                                   

 * Work memory size             :    64000000 =  488.28 megabytes.

 * Directories for basis set searches:
   1) /gpfs/projects/rjh/adrian/fd_compare/dalton/hf/Ar/dipole
   2) /gpfs/projects/rjh/adrian/dalton/build/basis


Compilation information
-----------------------

 Who compiled             | ahurtado
 Host                     | sn-mem
 System                   | Linux-3.10.0-1160.24.1.el7.x86_64
 CMake generator          | Unix Makefiles
 Processor                | x86_64
 64-bit integers          | OFF
 MPI                      | ON
 Fortran compiler         | /gpfs/software/intel/oneAPI/2021_4/mpi/2021.4.0/bi
                          | n/mpif90
 Fortran compiler version | GNU Fortran (GCC) 11.2.0
 C compiler               | /gpfs/software/intel/oneAPI/2021_4/mpi/2021.4.0/bi
                          | n/mpicc
 C compiler version       | gcc (GCC) 11.2.0
 C++ compiler             | /gpfs/software/intel/oneAPI/2021_4/mpi/2021.4.0/bi
                          | n/mpicxx
 C++ compiler version     | unknown
 BLAS                     | /gpfs/software/intel/oneAPI/2021_4/mkl/2021.4.0/li
                          | b/intel64/libmkl_gf_lp64.so;/gpfs/software/intel/o
                          | neAPI/2021_4/mkl/2021.4.0/lib/intel64/libmkl_seque
                          | ntial.so;/gpfs/software/intel/oneAPI/2021_4/mkl/20
                          | 21.4.0/lib/intel64/libmkl_core.so;/usr/lib64/libpt
                          | hread.so;/usr/lib64/libm.so
 LAPACK                   | /gpfs/software/intel/oneAPI/2021_4/mkl/2021.4.0/li
                          | b/intel64/libmkl_lapack95_lp64.a;/gpfs/software/in
                          | tel/oneAPI/2021_4/mkl/2021.4.0/lib/intel64/libmkl_
                          | gf_lp64.so
 Static linking           | OFF
 Last Git revision        | 66052b3af5ea7225e31178bf9a8b031913c72190
 Git branch               | (HEAD detached at Dalton2020.0)
 Configuration time       | 2023-01-11 13:33:37.731835

 * MPI parallel run using 20 processes.


   Content of the .dal input file
 ----------------------------------

**DALTON INPUT
.RUN RESPONSE
.DIRECT
**WAVE FUNCTIONS
.HF
**RESPONSE
*LINEAR
.DIPLEN
.FREQUENCIES
9
0.0 0.030119 0.060238 0.09035699999999999 0.120476 0.150595 0.18071399999999999 0.210833 0.240952
**END OF DALTON INPUT


   Content of the .mol file
 ----------------------------

BASIS
aug-cc-pCVQZ
blah
blah
Atomtype=1 Atomic
Charge=18 Atoms=1
Ar_a 0.000000000000 0.000000000000 0.000000000000


       *******************************************************************
       *********** Output from DALTON general input processing ***********
       *******************************************************************

 --------------------------------------------------------------------------------
   Overall default print level:    0
   Print level for DALTON.STAT:    1

    Parallel calculation using MPI
    AO-direct calculation (in sections where implemented)
    HERMIT 1- and 2-electron integral sections will be executed
    "Old" integral transformation used (limited to max 255 basis functions)
    Wave function sections will be executed (SIRIUS module)
    Dynamic molecular response properties section will be executed (RESPONSE module)
 --------------------------------------------------------------------------------


   ****************************************************************************
   *************** Output of molecule and basis set information ***************
   ****************************************************************************


    The two title cards from your ".mol" input:
    ------------------------------------------------------------------------
 1: blah                                                                    
 2: blah                                                                    
    ------------------------------------------------------------------------

  Atomic type no.    1
  --------------------
  Nuclear charge:  18.00000
  Number of symmetry independent centers:    1
  Number of basis sets to read;    2
  Basis set file used for this atomic type with Z =  18 :
     "/gpfs/projects/rjh/adrian/dalton/build/basis/aug-cc-pCVQZ"


                      SYMADD: Requested addition of symmetry
                      --------------------------------------

 Symmetry test threshold:  5.00E-06

@   The molecule is centered at center of mass and rotated
@   so principal axes of inertia are along coordinate axes.

 Symmetry class found: D(oo,h)        

 Symmetry Independent Centres             
 ----------------------------
Ar_a  18 :      0.00000000     0.00000000     0.00000000  Isotope  1

 The following symmetry elements were found:   X  Y  Z  


                         SYMGRP: Point group information
                         -------------------------------

@    Full point group is: D(oo,h)        
@    Represented as:      D2h

@  * The irrep name for each symmetry:    1: Ag     2: B3u    3: B2u    4: B1g    5: B1u    6: B2g    7: B3g    8: Au 


   * The point group was generated by:

      Reflection in the yz-plane
      Reflection in the xz-plane
      Reflection in the xy-plane

   * Group multiplication table

        |  E   C2z  C2y  C2x   i   Oxy  Oxz  Oyz
   -----+----------------------------------------
     E  |  E   C2z  C2y  C2x   i   Oxy  Oxz  Oyz
    C2z | C2z   E   C2x  C2y  Oxy   i   Oyz  Oxz
    C2y | C2y  C2x   E   C2z  Oxz  Oyz   i   Oxy
    C2x | C2x  C2y  C2z   E   Oyz  Oxz  Oxy   i 
     i  |  i   Oxy  Oxz  Oyz   E   C2z  C2y  C2x
    Oxy | Oxy   i   Oyz  Oxz  C2z   E   C2x  C2y
    Oxz | Oxz  Oyz   i   Oxy  C2y  C2x   E   C2z
    Oyz | Oyz  Oxz  Oxy   i   C2x  C2y  C2z   E 

   * Character table

        |  E   C2z  C2y  C2x   i   Oxy  Oxz  Oyz
   -----+----------------------------------------
    Ag  |   1    1    1    1    1    1    1    1
    B3u |   1   -1   -1    1   -1    1    1   -1
    B2u |   1   -1    1   -1   -1    1   -1    1
    B1g |   1    1   -1   -1    1    1   -1   -1
    B1u |   1    1   -1   -1   -1   -1    1    1
    B2g |   1   -1    1   -1    1   -1    1   -1
    B3g |   1   -1   -1    1    1   -1   -1    1
    Au  |   1    1    1    1   -1   -1   -1   -1

   * Direct product table

        | Ag   B3u  B2u  B1g  B1u  B2g  B3g  Au 
   -----+----------------------------------------
    Ag  | Ag   B3u  B2u  B1g  B1u  B2g  B3g  Au 
    B3u | B3u  Ag   B1g  B2u  B2g  B1u  Au   B3g
    B2u | B2u  B1g  Ag   B3u  B3g  Au   B1u  B2g
    B1g | B1g  B2u  B3u  Ag   Au   B3g  B2g  B1u
    B1u | B1u  B2g  B3g  Au   Ag   B3u  B2u  B1g
    B2g | B2g  B1u  Au   B3g  B3u  Ag   B1g  B2u
    B3g | B3g  Au   B1u  B2g  B2u  B1g  Ag   B3u
    Au  | Au   B3g  B2g  B1u  B1g  B2u  B3u  Ag 


                                 Isotopic Masses
                                 ---------------

                           Ar_a       39.962383

                       Total mass:    39.962383 amu
                       Natural abundance:  99.600 %

 Center-of-mass coordinates (a.u.):    0.000000    0.000000    0.000000
 Center-of-mass coordinates (Angs):    0.000000    0.000000    0.000000


  Atoms and basis sets
  --------------------

  Number of atom types :    1
  Total number of atoms:    1

  Basis set used is "aug-cc-pCVQZ" from the basis set library.

  label    atoms   charge   prim   cont     basis
  ----------------------------------------------------------------------
  Ar          1   18.0000   162   134      [20s15p7d5f3g|10s9p7d5f3g]                         
  ----------------------------------------------------------------------
  total:      1   18.0000   162   134
  ----------------------------------------------------------------------
  Spherical harmonic basis used.

  Threshold for neglecting AO integrals:  1.00D-12


  Cartesian Coordinates (a.u.)
  ----------------------------

  Total number of coordinates:    3
  Ar_a    :     1  x   0.0000000000    2  y   0.0000000000    3  z   0.0000000000


  Symmetry Coordinates
  --------------------

  Number of coordinates in each symmetry:     0    1    1    0    1    0    0    0

  Symmetry  B3u ( 2)

    1   Ar_a  x    1

  Symmetry  B2u ( 3)

    2   Ar_a  y    2

  Symmetry  B1u ( 5)

    3   Ar_a  z    3


@ This is an atomic calculation.


  Symmetry Orbitals
  -----------------

  Number of orbitals in each symmetry:          33   19   19   13   19   13   13    5


  Symmetry  Ag ( 1)

    1     Ar_a     1s         1
    2     Ar_a     1s         2
    3     Ar_a     1s         3
    4     Ar_a     1s         4
    5     Ar_a     1s         5
    6     Ar_a     1s         6
    7     Ar_a     1s         7
    8     Ar_a     1s         8
    9     Ar_a     1s         9
   10     Ar_a     1s        10
   11     Ar_a     3d0       40
   12     Ar_a     3d2+      42
   13     Ar_a     3d0       45
   14     Ar_a     3d2+      47
   15     Ar_a     3d0       50
   16     Ar_a     3d2+      52
   17     Ar_a     3d0       55
   18     Ar_a     3d2+      57
   19     Ar_a     3d0       60
   20     Ar_a     3d2+      62
   21     Ar_a     3d0       65
   22     Ar_a     3d2+      67
   23     Ar_a     3d0       70
   24     Ar_a     3d2+      72
   25     Ar_a     5g0      112
   26     Ar_a     5g2+     114
   27     Ar_a     5g4+     116
   28     Ar_a     5g0      121
   29     Ar_a     5g2+     123
   30     Ar_a     5g4+     125
   31     Ar_a     5g0      130
   32     Ar_a     5g2+     132
   33     Ar_a     5g4+     134


  Symmetry  B3u( 2)

   34     Ar_a     2px       11
   35     Ar_a     2px       14
   36     Ar_a     2px       17
   37     Ar_a     2px       20
   38     Ar_a     2px       23
   39     Ar_a     2px       26
   40     Ar_a     2px       29
   41     Ar_a     2px       32
   42     Ar_a     2px       35
   43     Ar_a     4f1+      77
   44     Ar_a     4f3+      79
   45     Ar_a     4f1+      84
   46     Ar_a     4f3+      86
   47     Ar_a     4f1+      91
   48     Ar_a     4f3+      93
   49     Ar_a     4f1+      98
   50     Ar_a     4f3+     100
   51     Ar_a     4f1+     105
   52     Ar_a     4f3+     107


  Symmetry  B2u( 3)

   53     Ar_a     2py       12
   54     Ar_a     2py       15
   55     Ar_a     2py       18
   56     Ar_a     2py       21
   57     Ar_a     2py       24
   58     Ar_a     2py       27
   59     Ar_a     2py       30
   60     Ar_a     2py       33
   61     Ar_a     2py       36
   62     Ar_a     4f3-      73
   63     Ar_a     4f1-      75
   64     Ar_a     4f3-      80
   65     Ar_a     4f1-      82
   66     Ar_a     4f3-      87
   67     Ar_a     4f1-      89
   68     Ar_a     4f3-      94
   69     Ar_a     4f1-      96
   70     Ar_a     4f3-     101
   71     Ar_a     4f1-     103


  Symmetry  B1g( 4)

   72     Ar_a     3d2-      38
   73     Ar_a     3d2-      43
   74     Ar_a     3d2-      48
   75     Ar_a     3d2-      53
   76     Ar_a     3d2-      58
   77     Ar_a     3d2-      63
   78     Ar_a     3d2-      68
   79     Ar_a     5g4-     108
   80     Ar_a     5g2-     110
   81     Ar_a     5g4-     117
   82     Ar_a     5g2-     119
   83     Ar_a     5g4-     126
   84     Ar_a     5g2-     128


  Symmetry  B1u( 5)

   85     Ar_a     2pz       13
   86     Ar_a     2pz       16
   87     Ar_a     2pz       19
   88     Ar_a     2pz       22
   89     Ar_a     2pz       25
   90     Ar_a     2pz       28
   91     Ar_a     2pz       31
   92     Ar_a     2pz       34
   93     Ar_a     2pz       37
   94     Ar_a     4f0       76
   95     Ar_a     4f2+      78
   96     Ar_a     4f0       83
   97     Ar_a     4f2+      85
   98     Ar_a     4f0       90
   99     Ar_a     4f2+      92
  100     Ar_a     4f0       97
  101     Ar_a     4f2+      99
  102     Ar_a     4f0      104
  103     Ar_a     4f2+     106


  Symmetry  B2g( 6)

  104     Ar_a     3d1+      41
  105     Ar_a     3d1+      46
  106     Ar_a     3d1+      51
  107     Ar_a     3d1+      56
  108     Ar_a     3d1+      61
  109     Ar_a     3d1+      66
  110     Ar_a     3d1+      71
  111     Ar_a     5g1+     113
  112     Ar_a     5g3+     115
  113     Ar_a     5g1+     122
  114     Ar_a     5g3+     124
  115     Ar_a     5g1+     131
  116     Ar_a     5g3+     133


  Symmetry  B3g( 7)

  117     Ar_a     3d1-      39
  118     Ar_a     3d1-      44
  119     Ar_a     3d1-      49
  120     Ar_a     3d1-      54
  121     Ar_a     3d1-      59
  122     Ar_a     3d1-      64
  123     Ar_a     3d1-      69
  124     Ar_a     5g3-     109
  125     Ar_a     5g1-     111
  126     Ar_a     5g3-     118
  127     Ar_a     5g1-     120
  128     Ar_a     5g3-     127
  129     Ar_a     5g1-     129


  Symmetry  Au ( 8)

  130     Ar_a     4f2-      74
  131     Ar_a     4f2-      81
  132     Ar_a     4f2-      88
  133     Ar_a     4f2-      95
  134     Ar_a     4f2-     102

  Symmetries of electric field:  B3u(2)  B2u(3)  B1u(5)

  Symmetries of magnetic field:  B3g(7)  B2g(6)  B1g(4)


                     .---------------------------------------.
                     | Starting in Integral Section (HERMIT) |
                     `---------------------------------------'



 ***************************************************************************************
 ****************** Output from **INTEGRALS input processing (HERMIT) ******************
 ***************************************************************************************


 - Using defaults, no **INTEGRALS input found

 Default print level:        1

 Calculation of one-electron Hamiltonian integrals.

 Center of mass  (bohr):      0.000000000000      0.000000000000      0.000000000000
 Operator center (bohr):      0.000000000000      0.000000000000      0.000000000000
 Gauge origin    (bohr):      0.000000000000      0.000000000000      0.000000000000
 Dipole origin   (bohr):      0.000000000000      0.000000000000      0.000000000000


     ************************************************************************
     ************************** Output from HERINT **************************
     ************************************************************************



                      Nuclear contribution to dipole moments
                      --------------------------------------

                    All dipole components are zero by symmetry


  Time used in GABGEN     is       0.32 seconds
  Total CPU  time used in HERMIT:   0.46 seconds
  Total wall time used in HERMIT:   0.46 seconds


                        .----------------------------------.
                        | End of Integral Section (HERMIT) |
                        `----------------------------------'



                   .--------------------------------------------.
                   | Starting in Wave Function Section (SIRIUS) |
                   `--------------------------------------------'


 *** Output from Huckel module :

     Using EWMO model:          T
     Using EHT  model:          F
     Number of Huckel orbitals each symmetry:    5    2    2    1    2    1    1    0

 EWMO - Energy Weighted Maximum Overlap - is a Huckel type method,
        which normally is better than Extended Huckel Theory.
 Reference: Linderberg and Ohrn, Propagators in Quantum Chemistry (Wiley, 1973)

 Huckel EWMO eigenvalues for symmetry :  1
         -118.609800     -12.322100      -1.277300      -0.055556      -0.055556

 Huckel EWMO eigenvalues for symmetry :  2
           -9.571400      -0.591000

 Huckel EWMO eigenvalues for symmetry :  3
           -9.571400      -0.591000

 Huckel EWMO eigenvalues for symmetry :  4
           -0.055556

 Huckel EWMO eigenvalues for symmetry :  5
           -9.571400      -0.591000

 Huckel EWMO eigenvalues for symmetry :  6
           -0.055556

 Huckel EWMO eigenvalues for symmetry :  7
           -0.055556

 **********************************************************************
 *SIRIUS* a direct, restricted step, second order MCSCF program       *
 **********************************************************************

 
     Date and time (Linux)  : Wed Jan 11 14:15:18 2023
     Host name              : cn021                                   

 Title lines from ".mol" input file:
     blah                                                                    
     blah                                                                    

 Print level on unit LUPRI =   2 is   0
 Print level on unit LUW4  =   2 is   5

@    Restricted, closed shell Hartree-Fock calculation.

@    Time-dependent Hartree-Fock calculation (random phase approximation).
 Fock matrices are calculated directly and in parallel without use of integrals on disk.

 Initial molecular orbitals are obtained according to
 ".MOSTART EWMO  " input option

     Wave function specification
     ============================
@    Wave function type        --- HF ---
@    Number of closed shell electrons          18
@    Number of electrons in active shells       0
@    Total charge of the molecule               0

@    Spin multiplicity and 2 M_S                1         0
@    Total number of symmetries                 8 (point group: D2h)
@    Reference state symmetry                   1 (irrep name : Ag )

     Orbital specifications
     ======================
@    Abelian symmetry species          All |    1    2    3    4    5    6    7    8
@                                          |  Ag   B3u  B2u  B1g  B1u  B2g  B3g  Au 
                                       --- |  ---  ---  ---  ---  ---  ---  ---  ---
@    Total number of orbitals          134 |   33   19   19   13   19   13   13    5
@    Number of basis functions         134 |   33   19   19   13   19   13   13    5

      ** Automatic occupation of RHF orbitals **

      -- Initial occupation of symmetries is determined from extended Huckel guess.           
      -- Initial occupation of symmetries is :
@    Occupied SCF orbitals               9 |    3    2    2    0    2    0    0    0

     Maximum number of Fock   iterations      0
     Maximum number of DIIS   iterations     60
     Maximum number of QC-SCF iterations     60
     Threshold for SCF convergence     1.00D-05


 ***********************************************
 ***** DIIS acceleration of SCF iterations *****
 ***********************************************

 C1-DIIS algorithm; max error vectors =    8

 Automatic occupation of symmetries with  18 electrons.

 Iter     Total energy    Error norm  Delta(E)    SCF occupation
 -----------------------------------------------------------------------------
   1  Screening settings (-IFTHRS, JTDIIS, DIFDEN, times)   -7    1    T  1.15D-01  1.15D-01
@  1  -526.814773098       1.86D+00  -5.27D+02     3   2   2   0   2   0   0   0
      Virial theorem: -V/T =      1.999474
@    MULPOP   Ar_a    0.00; 
   1  Level shift: doubly occupied orbital energies shifted by -2.00D-01
 -----------------------------------------------------------------------------
   2  Screening settings (-IFTHRS, JTDIIS, DIFDEN, times)   -7    2    T  9.34D-02  9.40D-02
@  2  -526.816780014       2.65D-02  -2.01D-03     3   2   2   0   2   0   0   0
      Virial theorem: -V/T =      2.000088
@    MULPOP   Ar_a    0.00; 
   2  Level shift: doubly occupied orbital energies shifted by -5.00D-02
 -----------------------------------------------------------------------------
   3  Screening settings (-IFTHRS, JTDIIS, DIFDEN, times)  -11    3    F  9.34D-02  9.30D-02
@  3  -526.816803984       6.25D-03  -2.40D-05     3   2   2   0   2   0   0   0
      Virial theorem: -V/T =      1.999972
@    MULPOP   Ar_a    0.00; 
   3  Level shift: doubly occupied orbital energies shifted by -1.25D-02
 -----------------------------------------------------------------------------
   4  Screening settings (-IFTHRS, JTDIIS, DIFDEN, times)  -11    4    T  8.22D-02  8.20D-02
@  4  -526.816804999       1.09D-03  -1.01D-06     3   2   2   0   2   0   0   0
      Virial theorem: -V/T =      2.000004
@    MULPOP   Ar_a    0.00; 
 -----------------------------------------------------------------------------
   5  Screening settings (-IFTHRS, JTDIIS, DIFDEN, times)  -11    5    T  7.59D-02  7.60D-02
@  5  -526.816805057       7.77D-05  -5.87D-08     3   2   2   0   2   0   0   0
      Virial theorem: -V/T =      2.000000
@    MULPOP   Ar_a   -0.00; 
 -----------------------------------------------------------------------------
   6  Screening settings (-IFTHRS, JTDIIS, DIFDEN, times)  -11    6    T  7.73D-02  7.80D-02
@  6  -526.816805058       1.14D-05  -7.23D-10     3   2   2   0   2   0   0   0
      Virial theorem: -V/T =      2.000000
@    MULPOP   Ar_a    0.00; 
 -----------------------------------------------------------------------------
   7  Screening settings (-IFTHRS, JTDIIS, DIFDEN, times)  -11    7    T  7.68D-02  7.70D-02
@  7  -526.816805058       2.17D-06  -1.30D-11     3   2   2   0   2   0   0   0

@ *** DIIS converged in   7 iterations !
@     Converged SCF energy, gradient:   -526.816805058044    2.17D-06
    - total time used in SIRFCK :              0.00 seconds


 *** SCF orbital energy analysis ***

 Only the 20 lowest virtual orbital energies printed in each symmetry.

 Number of electrons :   18
 Orbital occupations :    3    2    2    0    2    0    0    0

 Sym       Hartree-Fock orbital energies

1 Ag   -118.61042807   -12.32226445    -1.27743132     0.11956315     0.31183762
          0.31183762     0.74458123     0.76302852     0.76302852     1.92780855
          1.92780855     2.22994161     2.22994161     2.22994161     2.99392448
          4.85012972     4.85012972     5.64516859     5.64516859     5.64516859
         11.68379382    14.18400543    14.18400543

2 B3u    -9.57154599    -0.59107502     0.10948376     0.53084124     1.06048579
          1.06048579     1.94807117     2.60360544     2.60360544     5.76671953
          5.76671953     6.34290123    20.04266290    24.74539161    24.74539161
         58.52265730    86.77714152    86.77714152   189.14204402

3 B2u    -9.57154599    -0.59107502     0.10948376     0.53084124     1.06048579
          1.06048579     1.94807117     2.60360544     2.60360544     5.76671953
          5.76671953     6.34290123    20.04266290    24.74539161    24.74539161
         58.52265730    86.77714152    86.77714152   189.14204402

4 B1g     0.31183762     0.76302852     1.92780855     2.22994161     2.22994161
          4.85012972     5.64516859     5.64516859    14.18400543    44.15045850
         75.98197281    75.98197281   129.02707304

5 B1u    -9.57154599    -0.59107502     0.10948376     0.53084124     1.06048579
          1.06048579     1.94807117     2.60360544     2.60360544     5.76671953
          5.76671953     6.34290123    20.04266290    24.74539161    24.74539161
         58.52265730    86.77714152    86.77714152   189.14204402

6 B2g     0.31183762     0.76302852     1.92780855     2.22994161     2.22994161
          4.85012972     5.64516859     5.64516859    14.18400543    44.15045850
         75.98197281    75.98197281   129.02707304

7 B3g     0.31183762     0.76302852     1.92780855     2.22994161     2.22994161
          4.85012972     5.64516859     5.64516859    14.18400543    44.15045850
         75.98197281    75.98197281   129.02707304

8 Au      1.06048579     2.60360544     5.76671953    24.74539161    86.77714152


    E(LUMO) :     0.10948376 au (symmetry 3)
  - E(HOMO) :    -0.59107502 au (symmetry 2)
  ------------------------------------------
    gap     :     0.70055878 au

 --- Writing SIRIFC interface file

 CPU and wall time for SCF :       0.625       0.629


                       .-----------------------------------.
                       | --- Final results from SIRIUS --- |
                       `-----------------------------------'


@    Spin multiplicity:           1
@    Spatial symmetry:            1 ( irrep  Ag  in D2h )
@    Total charge of molecule:    0

@    Final HF energy:            -526.816805058044                 
@    Nuclear repulsion:             0.000000000000
@    Electronic energy:          -526.816805058044

@    Final gradient norm:           0.000002166520

 
     Date and time (Linux)  : Wed Jan 11 14:15:19 2023
     Host name              : cn021                                   

File label for MO orbitals:  11Jan23   FOCKDIIS

 (Only coefficients > 0.0100 are printed.)

 Molecular orbitals for symmetry species 1  (Ag )
 ------------------------------------------------

    Orbital         1        2        3        4        5        6        7
   1 Ar_a:1s     1.0001  -0.0001   0.0002   0.0122   0.0000  -0.0000   0.0531
   2 Ar_a:1s     0.0001   1.0002   0.0020   0.1856   0.0000  -0.0000   0.7400
   3 Ar_a:1s    -0.0001   0.0010  -0.9959   0.7085   0.0000  -0.0000   1.2337
   4 Ar_a:1s    -0.0001   0.0004   0.0003   0.1330  -0.0000   0.0000   0.5997
   5 Ar_a:1s     0.0002  -0.0017  -0.0059  -0.8763  -0.0000   0.0000  -4.6051
   6 Ar_a:1s    -0.0001   0.0008   0.0026   1.2417  -0.0000   0.0000   3.9011
   7 Ar_a:1s    -0.0000  -0.0000   0.0002   0.0120   0.0000  -0.0000   0.0532
   8 Ar_a:1s     0.0001  -0.0000  -0.0004  -0.0362  -0.0000   0.0000  -0.1606
   9 Ar_a:1s    -0.0002   0.0003   0.0004   0.0703  -0.0000   0.0000   0.3147
  10 Ar_a:1s     0.0001  -0.0006  -0.0024  -1.8024  -0.0000   0.0000  -1.5734
  15 Ar_a:3d0   -0.0000  -0.0000  -0.0000  -0.0000   0.0000  -0.0186  -0.0000
  16 Ar_a:3d2+   0.0000   0.0000   0.0000   0.0000   0.0186  -0.0000   0.0000
  17 Ar_a:3d0    0.0000   0.0000  -0.0000   0.0000   0.0000  -0.0187  -0.0000
  18 Ar_a:3d2+  -0.0000  -0.0000  -0.0000   0.0000   0.0187  -0.0000   0.0000
  19 Ar_a:3d0   -0.0000  -0.0000   0.0000  -0.0000  -0.0000  -0.1731  -0.0000
  20 Ar_a:3d2+   0.0000   0.0000   0.0000  -0.0000   0.1731   0.0000  -0.0000
  21 Ar_a:3d0    0.0000   0.0000  -0.0000   0.0000   0.0000   0.1418  -0.0000
  22 Ar_a:3d2+  -0.0000  -0.0000  -0.0000   0.0000  -0.1418  -0.0000   0.0000
  23 Ar_a:3d0   -0.0000  -0.0000   0.0000   0.0000  -0.0000  -1.0394   0.0000
  24 Ar_a:3d2+   0.0000   0.0000   0.0000  -0.0000   1.0394   0.0000   0.0000

    Orbital         8        9       10       11       12       13
  13 Ar_a:3d0    0.0104   0.0000   0.0012  -0.0000  -0.0000   0.0000
  14 Ar_a:3d2+   0.0000   0.0104  -0.0000   0.0012  -0.0000  -0.0000
  15 Ar_a:3d0    0.0326  -0.0000  -0.1290   0.0000  -0.0000   0.0000
  16 Ar_a:3d2+  -0.0000   0.0326  -0.0000  -0.1290  -0.0000  -0.0000
  17 Ar_a:3d0    0.2178   0.0000  -0.1263  -0.0000  -0.0000   0.0000
  18 Ar_a:3d2+   0.0000   0.2178  -0.0000  -0.1263  -0.0000  -0.0000
  19 Ar_a:3d0    0.0303  -0.0000  -1.2938   0.0000   0.0000  -0.0000
  20 Ar_a:3d2+  -0.0000   0.0303   0.0000  -1.2938  -0.0000   0.0000
  21 Ar_a:3d0    1.1699   0.0000   1.6079  -0.0000  -0.0000   0.0000
  22 Ar_a:3d2+   0.0000   1.1699  -0.0000   1.6079   0.0000  -0.0000
  23 Ar_a:3d0   -0.8543  -0.0000  -0.6045   0.0000  -0.0000   0.0000
  24 Ar_a:3d2+  -0.0000  -0.8543   0.0000  -0.6045   0.0000  -0.0000
  29 Ar_a:5g2+   0.0000  -0.0000  -0.0000   0.0000  -0.0000  -0.2259
  30 Ar_a:5g4+  -0.0000  -0.0000   0.0000   0.0000  -0.2259   0.0000
  32 Ar_a:5g2+  -0.0000   0.0000   0.0000  -0.0000   0.0000   1.1349
  33 Ar_a:5g4+   0.0000   0.0000  -0.0000  -0.0000   1.1349   0.0000

 Molecular orbitals for symmetry species 2  (B3u)
 ------------------------------------------------

    Orbital         1        2        3        4        5        6        7
   1 Ar_a:2px    1.0000   0.0008  -0.0868  -0.4375  -0.0000   0.0000   1.5439
   2 Ar_a:2px    0.0001   1.0030  -0.1154  -2.0559  -0.0000   0.0000   4.1788
   3 Ar_a:2px   -0.0001  -0.0021   0.2055   0.9481   0.0000  -0.0000  -4.1102
   4 Ar_a:2px    0.0000   0.0005  -0.0371  -0.3506   0.0000  -0.0000   0.9059
   5 Ar_a:2px   -0.0001  -0.0043   0.6416   2.6833   0.0000  -0.0000  -2.4747
   6 Ar_a:2px    0.0000   0.0000   0.0008   0.0030  -0.0000   0.0000  -0.0115
   7 Ar_a:2px   -0.0000   0.0000  -0.0064  -0.0289   0.0000   0.0000   0.1118
   8 Ar_a:2px    0.0000   0.0000   0.0069   0.0280  -0.0000   0.0000  -0.1131
   9 Ar_a:2px    0.0001   0.0039  -1.3355  -0.9572  -0.0000   0.0000   0.4738
  14 Ar_a:4f1+   0.0000  -0.0000  -0.0000   0.0000   0.0000   0.1242   0.0000
  15 Ar_a:4f3+  -0.0000   0.0000   0.0000  -0.0000   0.1242   0.0000  -0.0000
  16 Ar_a:4f1+  -0.0000   0.0000   0.0000  -0.0000  -0.0000  -0.5354  -0.0000
  17 Ar_a:4f3+   0.0000  -0.0000  -0.0000   0.0000  -0.5354  -0.0000   0.0000
  18 Ar_a:4f1+   0.0000  -0.0000  -0.0000   0.0000   0.0000   1.3662   0.0000
  19 Ar_a:4f3+  -0.0000   0.0000   0.0000  -0.0000   1.3662  -0.0000  -0.0000

    Orbital         8        9       10       11       12
   1 Ar_a:2px   -0.0000   0.0000   0.0000  -0.0000  -9.3840
   2 Ar_a:2px   -0.0000   0.0000   0.0000  -0.0000 -34.7579
   3 Ar_a:2px    0.0000  -0.0000  -0.0000   0.0000  17.5725
   4 Ar_a:2px    0.0000  -0.0000  -0.0000   0.0000  15.0916
   5 Ar_a:2px    0.0000  -0.0000  -0.0000   0.0000   8.0585
   6 Ar_a:2px   -0.0000   0.0000   0.0000  -0.0000   0.0113
   7 Ar_a:2px   -0.0000   0.0000   0.0000  -0.0000  -0.4916
   8 Ar_a:2px   -0.0000   0.0000   0.0000  -0.0000   0.3192
   9 Ar_a:2px   -0.0000   0.0000   0.0000  -0.0000  -0.2309
  12 Ar_a:4f1+  -0.0000  -0.0146   0.0254  -0.0000  -0.0000
  13 Ar_a:4f3+  -0.0146  -0.0000  -0.0000   0.0254   0.0000
  14 Ar_a:4f1+   0.0000   0.1061   1.4841   0.0000   0.0000
  15 Ar_a:4f3+   0.1061   0.0000   0.0000   1.4841  -0.0000
  16 Ar_a:4f1+  -0.0000  -1.7829  -1.5833  -0.0000  -0.0000
  17 Ar_a:4f3+  -1.7829  -0.0000  -0.0000  -1.5833   0.0000
  18 Ar_a:4f1+   0.0000   1.1805   0.7601   0.0000   0.0000
  19 Ar_a:4f3+   1.1805   0.0000   0.0000   0.7601  -0.0000

 Molecular orbitals for symmetry species 3  (B2u)
 ------------------------------------------------

    Orbital         1        2        3        4        5        6        7
   1 Ar_a:2py    1.0000   0.0008  -0.0868  -0.4375   0.0000   0.0000   1.5439
   2 Ar_a:2py    0.0001   1.0030  -0.1154  -2.0559   0.0000   0.0000   4.1788
   3 Ar_a:2py   -0.0001  -0.0021   0.2055   0.9481  -0.0000  -0.0000  -4.1102
   4 Ar_a:2py    0.0000   0.0005  -0.0371  -0.3506  -0.0000  -0.0000   0.9059
   5 Ar_a:2py   -0.0001  -0.0043   0.6416   2.6833  -0.0000  -0.0000  -2.4747
   6 Ar_a:2py    0.0000   0.0000   0.0008   0.0030   0.0000   0.0000  -0.0115
   7 Ar_a:2py   -0.0000   0.0000  -0.0064  -0.0289  -0.0000   0.0000   0.1118
   8 Ar_a:2py    0.0000   0.0000   0.0069   0.0280   0.0000   0.0000  -0.1131
   9 Ar_a:2py    0.0001   0.0039  -1.3355  -0.9572   0.0000   0.0000   0.4738
  14 Ar_a:4f3-   0.0000  -0.0000  -0.0000   0.0000   0.1242  -0.0000   0.0000
  15 Ar_a:4f1-  -0.0000  -0.0000  -0.0000   0.0000  -0.0000   0.1242   0.0000
  16 Ar_a:4f3-  -0.0000   0.0000   0.0000  -0.0000  -0.5354   0.0000  -0.0000
  17 Ar_a:4f1-   0.0000   0.0000   0.0000  -0.0000   0.0000  -0.5354  -0.0000
  18 Ar_a:4f3-   0.0000  -0.0000  -0.0000   0.0000   1.3662  -0.0000   0.0000
  19 Ar_a:4f1-   0.0000  -0.0000  -0.0000   0.0000  -0.0000   1.3662   0.0000

    Orbital         8        9       10       11       12
   1 Ar_a:2py    0.0000   0.0000   0.0000   0.0000  -9.3840
   2 Ar_a:2py    0.0000   0.0000   0.0000   0.0000 -34.7579
   3 Ar_a:2py   -0.0000  -0.0000  -0.0000  -0.0000  17.5725
   4 Ar_a:2py   -0.0000  -0.0000  -0.0000  -0.0000  15.0916
   5 Ar_a:2py   -0.0000  -0.0000  -0.0000  -0.0000   8.0585
   6 Ar_a:2py    0.0000   0.0000   0.0000   0.0000   0.0113
   7 Ar_a:2py    0.0000   0.0000   0.0000  -0.0000  -0.4916
   8 Ar_a:2py    0.0000   0.0000   0.0000   0.0000   0.3192
   9 Ar_a:2py    0.0000   0.0000   0.0000   0.0000  -0.2309
  12 Ar_a:4f3-  -0.0146   0.0000   0.0254   0.0000  -0.0000
  13 Ar_a:4f1-   0.0000  -0.0146   0.0000   0.0254  -0.0000
  14 Ar_a:4f3-   0.1061   0.0000   1.4841  -0.0000   0.0000
  15 Ar_a:4f1-  -0.0000   0.1061  -0.0000   1.4841   0.0000
  16 Ar_a:4f3-  -1.7829  -0.0000  -1.5833   0.0000  -0.0000
  17 Ar_a:4f1-   0.0000  -1.7829   0.0000  -1.5833  -0.0000
  18 Ar_a:4f3-   1.1805   0.0000   0.7601  -0.0000   0.0000
  19 Ar_a:4f1-  -0.0000   1.1805  -0.0000   0.7601   0.0000

 Molecular orbitals for symmetry species 4  (B1g)
 ------------------------------------------------

    Orbital         1        2        3        4        5        6        7
   2 Ar_a:3d2-  -0.0002   0.0104   0.0012  -0.0000   0.0000  -0.0623  -0.0000
   3 Ar_a:3d2-   0.0186   0.0326  -0.1290  -0.0000   0.0000  -0.0968  -0.0000
   4 Ar_a:3d2-   0.0187   0.2178  -0.1263   0.0000   0.0000  -1.4550  -0.0000
   5 Ar_a:3d2-   0.1731   0.0303  -1.2938  -0.0000   0.0000   1.9885   0.0000
   6 Ar_a:3d2-  -0.1418   1.1699   1.6079   0.0000   0.0000  -1.1338  -0.0000
   7 Ar_a:3d2-   1.0394  -0.8543  -0.6045   0.0000   0.0000   0.3442  -0.0000
  10 Ar_a:5g4-   0.0000   0.0000  -0.0000   0.2259   0.0000  -0.0000   1.3134
  11 Ar_a:5g2-   0.0000   0.0000   0.0000   0.0000  -0.2259   0.0000   0.0000
  12 Ar_a:5g4-  -0.0000  -0.0000   0.0000  -1.1349   0.0000   0.0000  -0.6988
  13 Ar_a:5g2-   0.0000   0.0000   0.0000   0.0000   1.1349   0.0000   0.0000

    Orbital         8        9       10
   1 Ar_a:3d2-   0.0000   0.0742   0.1055
   2 Ar_a:3d2-   0.0000  -0.1020  -1.6567
   3 Ar_a:3d2-   0.0000   1.3812   1.5349
   4 Ar_a:3d2-   0.0000  -1.5757  -0.8301
   5 Ar_a:3d2-   0.0000   1.1426   0.5236
   6 Ar_a:3d2-   0.0000  -0.5408  -0.2467
   7 Ar_a:3d2-   0.0000   0.1634   0.0762
  11 Ar_a:5g2-   1.3134   0.0000   0.0000
  13 Ar_a:5g2-  -0.6988   0.0000   0.0000

 Molecular orbitals for symmetry species 5  (B1u)
 ------------------------------------------------

    Orbital         1        2        3        4        5        6        7
   1 Ar_a:2pz    1.0000   0.0008  -0.0868  -0.4375  -0.0000   0.0000   1.5439
   2 Ar_a:2pz    0.0001   1.0030  -0.1154  -2.0559  -0.0000  -0.0000   4.1788
   3 Ar_a:2pz   -0.0001  -0.0021   0.2055   0.9481   0.0000   0.0000  -4.1102
   4 Ar_a:2pz    0.0000   0.0005  -0.0371  -0.3506   0.0000  -0.0000   0.9059
   5 Ar_a:2pz   -0.0001  -0.0043   0.6416   2.6833  -0.0000   0.0000  -2.4747
   6 Ar_a:2pz    0.0000   0.0000   0.0008   0.0030   0.0000  -0.0000  -0.0115
   7 Ar_a:2pz   -0.0000   0.0000  -0.0064  -0.0289  -0.0000   0.0000   0.1118
   8 Ar_a:2pz    0.0000   0.0000   0.0069   0.0280   0.0000  -0.0000  -0.1131
   9 Ar_a:2pz    0.0001   0.0039  -1.3355  -0.9572   0.0000  -0.0000   0.4738
  14 Ar_a:4f0   -0.0000   0.0000   0.0000  -0.0000  -0.0000   0.1242  -0.0000
  15 Ar_a:4f2+   0.0000  -0.0000  -0.0000   0.0000   0.1242  -0.0000   0.0000
  16 Ar_a:4f0    0.0000  -0.0000  -0.0000   0.0000   0.0000  -0.5354   0.0000
  17 Ar_a:4f2+  -0.0000   0.0000   0.0000  -0.0000  -0.5354   0.0000  -0.0000
  18 Ar_a:4f0   -0.0000   0.0000   0.0000  -0.0000  -0.0000   1.3662  -0.0000
  19 Ar_a:4f2+   0.0000  -0.0000  -0.0000   0.0000   1.3662   0.0000   0.0000

    Orbital         8        9       10       11       12
   1 Ar_a:2pz    0.0000  -0.0000   0.0000  -0.0000  -9.3840
   2 Ar_a:2pz    0.0000  -0.0000   0.0000  -0.0000 -34.7579
   3 Ar_a:2pz   -0.0000   0.0000  -0.0000   0.0000  17.5725
   4 Ar_a:2pz   -0.0000   0.0000  -0.0000   0.0000  15.0916
   5 Ar_a:2pz   -0.0000   0.0000  -0.0000   0.0000   8.0585
   6 Ar_a:2pz    0.0000  -0.0000   0.0000  -0.0000   0.0113
   7 Ar_a:2pz    0.0000  -0.0000   0.0000  -0.0000  -0.4916
   8 Ar_a:2pz    0.0000  -0.0000   0.0000  -0.0000   0.3192
   9 Ar_a:2pz    0.0000  -0.0000   0.0000  -0.0000  -0.2309
  12 Ar_a:4f0   -0.0000  -0.0146  -0.0000   0.0254   0.0000
  13 Ar_a:4f2+  -0.0146  -0.0000   0.0254  -0.0000  -0.0000
  14 Ar_a:4f0    0.0000   0.1061   0.0000   1.4841  -0.0000
  15 Ar_a:4f2+   0.1061   0.0000   1.4841   0.0000   0.0000
  16 Ar_a:4f0   -0.0000  -1.7829  -0.0000  -1.5833   0.0000
  17 Ar_a:4f2+  -1.7829  -0.0000  -1.5833  -0.0000  -0.0000
  18 Ar_a:4f0    0.0000   1.1805   0.0000   0.7601  -0.0000
  19 Ar_a:4f2+   1.1805   0.0000   0.7601   0.0000   0.0000

 Molecular orbitals for symmetry species 6  (B2g)
 ------------------------------------------------

    Orbital         1        2        3        4        5        6        7
   2 Ar_a:3d1+  -0.0002   0.0104   0.0012  -0.0000  -0.0000  -0.0623  -0.0000
   3 Ar_a:3d1+   0.0186   0.0326  -0.1290  -0.0000  -0.0000  -0.0968  -0.0000
   4 Ar_a:3d1+   0.0187   0.2178  -0.1263  -0.0000  -0.0000  -1.4550  -0.0000
   5 Ar_a:3d1+   0.1731   0.0303  -1.2938   0.0000   0.0000   1.9885   0.0000
   6 Ar_a:3d1+  -0.1418   1.1699   1.6079  -0.0000  -0.0000  -1.1338  -0.0000
   7 Ar_a:3d1+   1.0394  -0.8543  -0.6045  -0.0000  -0.0000   0.3442  -0.0000
  10 Ar_a:5g1+  -0.0000  -0.0000   0.0000   0.0000  -0.2259   0.0000   0.0000
  11 Ar_a:5g3+   0.0000   0.0000  -0.0000  -0.2259  -0.0000  -0.0000   1.3134
  12 Ar_a:5g1+   0.0000   0.0000  -0.0000  -0.0000   1.1349  -0.0000  -0.0000
  13 Ar_a:5g3+  -0.0000  -0.0000   0.0000   1.1349   0.0000   0.0000  -0.6988

    Orbital         8        9       10
   1 Ar_a:3d1+   0.0000   0.0742   0.1055
   2 Ar_a:3d1+   0.0000  -0.1020  -1.6567
   3 Ar_a:3d1+   0.0000   1.3812   1.5349
   4 Ar_a:3d1+   0.0000  -1.5757  -0.8301
   5 Ar_a:3d1+   0.0000   1.1426   0.5236
   6 Ar_a:3d1+  -0.0000  -0.5408  -0.2467
   7 Ar_a:3d1+   0.0000   0.1634   0.0762
  10 Ar_a:5g1+   1.3134  -0.0000   0.0000
  12 Ar_a:5g1+  -0.6988   0.0000  -0.0000

 Molecular orbitals for symmetry species 7  (B3g)
 ------------------------------------------------

    Orbital         1        2        3        4        5        6        7
   2 Ar_a:3d1-  -0.0002   0.0104   0.0012  -0.0000  -0.0000  -0.0623  -0.0000
   3 Ar_a:3d1-   0.0186   0.0326  -0.1290  -0.0000  -0.0000  -0.0968  -0.0000
   4 Ar_a:3d1-   0.0187   0.2178  -0.1263  -0.0000  -0.0000  -1.4550  -0.0000
   5 Ar_a:3d1-   0.1731   0.0303  -1.2938   0.0000   0.0000   1.9885   0.0000
   6 Ar_a:3d1-  -0.1418   1.1699   1.6079  -0.0000  -0.0000  -1.1338  -0.0000
   7 Ar_a:3d1-   1.0394  -0.8543  -0.6045  -0.0000  -0.0000   0.3442  -0.0000
  10 Ar_a:5g3-  -0.0000  -0.0000   0.0000   0.2259   0.0000   0.0000   0.0000
  11 Ar_a:5g1-   0.0000   0.0000  -0.0000   0.0000  -0.2259  -0.0000   1.3134
  12 Ar_a:5g3-   0.0000   0.0000  -0.0000  -1.1349  -0.0000  -0.0000  -0.0000
  13 Ar_a:5g1-   0.0000   0.0000  -0.0000  -0.0000   1.1349  -0.0000  -0.6988

    Orbital         8        9       10
   1 Ar_a:3d1-   0.0000   0.0742   0.1055
   2 Ar_a:3d1-   0.0000  -0.1020  -1.6567
   3 Ar_a:3d1-   0.0000   1.3812   1.5349
   4 Ar_a:3d1-   0.0000  -1.5757  -0.8301
   5 Ar_a:3d1-  -0.0000   1.1426   0.5236
   6 Ar_a:3d1-   0.0000  -0.5408  -0.2467
   7 Ar_a:3d1-   0.0000   0.1634   0.0762
  10 Ar_a:5g3-   1.3134  -0.0000   0.0000
  12 Ar_a:5g3-  -0.6988   0.0000  -0.0000

 Molecular orbitals for symmetry species 8  (Au )
 ------------------------------------------------

    Orbital         1        2        3        4        5
   1 Ar_a:4f2-   0.0008   0.0025   0.0008  -0.1048  -1.2294
   2 Ar_a:4f2-  -0.0020  -0.0146   0.0254   1.0912   0.6538
   3 Ar_a:4f2-   0.1242   0.1061   1.4841  -0.4256  -0.1591
   4 Ar_a:4f2-  -0.5354  -1.7829  -1.5833   0.3725   0.1389
   5 Ar_a:4f2-   1.3662   1.1805   0.7601  -0.1826  -0.0692

  Total CPU  time used in SIRIUS :   0.63 seconds
  Total wall time used in SIRIUS :   0.64 seconds

 
     Date and time (Linux)  : Wed Jan 11 14:15:19 2023
     Host name              : cn021                                   


                     .---------------------------------------.
                     | End of Wave Function Section (SIRIUS) |
                     `---------------------------------------'



                 .------------------------------------------------.
                 | Starting in Dynamic Property Section (RESPONS) |
                 `------------------------------------------------'


 ----------------------------------------------------------------------------------------
  RESPONSE  -  an MCSCF, MC-srDFT, DFT, SOPPA and SOPPA-srDFT response property program
 ----------------------------------------------------------------------------------------


 -------- OUTPUT FROM RESPONSE INPUT PROCESSING --------




 Linear Response calculation
 ---------------------------

 Print level                                    : IPRLR  =   2
 Maximum number of iterations                   : MAXITL =  60
 Threshold for relative convergence             : THCLR  = 1.000D-03
 Maximum iterations in optimal orbital algorithm: MAXITO =   5

  9 B-frequencies  0.000000D+00  3.011900D-02  6.023800D-02  9.035700D-02  1.204760D-01
  1.505950D-01  1.807140D-01  2.108330D-01  2.409520D-01

    1 second order properties calculated with symmetry no.    2 and labels:

          XDIPLEN 

    1 second order properties calculated with symmetry no.    3 and labels:

          YDIPLEN 

    1 second order properties calculated with symmetry no.    5 and labels:

          ZDIPLEN 


   SCF energy         :     -526.816805058043656
 -- inactive part     :     -526.816805058043656
 -- nuclear repulsion :        0.000000000000000


                     ***************************************
                     *** RHF response calculation (TDHF) ***
                     ***************************************

 ----------------------------------------------------------------
 ----- Linear response calculation
 ----- Symmetry of excitation/property operator(s)    2  ( B3u)
 ----------------------------------------------------------------

 Number of excitations of this symmetry            0
 Number of response properties of this symmetry    1
 Number of C6/C8 properties of this symmetry       0


 Perturbation symmetry.     KSYMOP:           2
 Perturbation spin symmetry.TRPLET:           F
 Orbital variables.         KZWOPT:         163
 Configuration variables.   KZCONF:           0
 Total number of variables. KZVAR :         163


 RSPLR -- linear response calculation for symmetry 2  ( B3u)
 RSPLR -- operator label : XDIPLEN 
 RSPLR -- operator spin  :   0
 RSPLR -- frequencies    :     0.000000  0.030119  0.060238  0.090357  0.120476
                               0.150595  0.180714  0.210833  0.240952



 ---  SOLVING SETS OF LINEAR EQUATIONS FOR LINEAR RESPONSE PROPERTIES ---

 Operator symmetry = 2  ( B3u); triplet =   F

RSPORT:    1 out of    9 new trial vectors linear dependent

 ** RSPCTL MICROITERATION NUMBER    1

       No.  Residual tot.,    conf., and orb.    Bnorm      Frequency 
      ----------------------------------------------------------------
         1    5.11373D-01  0.00D+00  5.11D-01  2.58D+00    0.00000D+00
         2    5.12957D-01  0.00D+00  5.13D-01  2.59D+00    3.01190D-02
         3    5.17779D-01  0.00D+00  5.18D-01  2.62D+00    6.02380D-02
         4    5.26052D-01  0.00D+00  5.26D-01  2.68D+00    9.03570D-02
         5    5.38164D-01  0.00D+00  5.38D-01  2.76D+00    1.20476D-01
         6    5.54728D-01  0.00D+00  5.55D-01  2.86D+00    1.50595D-01
         7    5.76679D-01  0.00D+00  5.77D-01  3.01D+00    1.80714D-01
         8    6.05439D-01  0.00D+00  6.05D-01  3.19D+00    2.10833D-01
         9    6.43225D-01  0.00D+00  6.43D-01  3.42D+00    2.40952D-01

 ** RSPCTL MICROITERATION NUMBER    2

       No.  Residual tot.,    conf., and orb.    Bnorm      Frequency 
      ----------------------------------------------------------------
         1    1.96362D-02  0.00D+00  1.96D-02  2.59D+00    0.00000D+00
         2    1.96932D-02  0.00D+00  1.97D-02  2.61D+00    3.01190D-02
         3    1.98676D-02  0.00D+00  1.99D-02  2.64D+00    6.02380D-02
         4    2.01701D-02  0.00D+00  2.02D-02  2.69D+00    9.03570D-02
         5    2.06202D-02  0.00D+00  2.06D-02  2.77D+00    1.20476D-01
         6    2.12492D-02  0.00D+00  2.12D-02  2.88D+00    1.50595D-01
         7    2.21052D-02  0.00D+00  2.21D-02  3.03D+00    1.80714D-01
         8    2.32625D-02  0.00D+00  2.33D-02  3.22D+00    2.10833D-01
         9    2.48388D-02  0.00D+00  2.48D-02  3.46D+00    2.40952D-01

 ** RSPCTL MICROITERATION NUMBER    3

       No.  Residual tot.,    conf., and orb.    Bnorm      Frequency 
      ----------------------------------------------------------------
         1    2.54464D-03  0.00D+00  2.54D-03  2.59D+00    0.00000D+00
         2    2.55501D-03  0.00D+00  2.56D-03  2.61D+00    3.01190D-02
         3    2.58647D-03  0.00D+00  2.59D-03  2.64D+00    6.02380D-02
         4    2.64019D-03  0.00D+00  2.64D-03  2.69D+00    9.03570D-02
         5    2.71821D-03  0.00D+00  2.72D-03  2.77D+00    1.20476D-01
         6    2.82371D-03  0.00D+00  2.82D-03  2.88D+00    1.50595D-01
         7    2.96137D-03  0.00D+00  2.96D-03  3.03D+00    1.80714D-01
         8    3.13809D-03  0.00D+00  3.14D-03  3.22D+00    2.10833D-01
         9    3.36413D-03  0.00D+00  3.36D-03  3.46D+00    2.40952D-01

 *** THE REQUESTED    9 SOLUTION VECTORS CONVERGED

 Convergence of RSP solution vectors, threshold = 1.00D-03
 ---------------------------------------------------------------
 (dimension of paired reduced space:   52)
 RSP solution vector no.    1; norm of residual   9.81D-04
 RSP solution vector no.    2; norm of residual   9.81D-04
 RSP solution vector no.    3; norm of residual   9.81D-04
 RSP solution vector no.    4; norm of residual   9.80D-04
 RSP solution vector no.    5; norm of residual   9.80D-04
 RSP solution vector no.    6; norm of residual   9.79D-04
 RSP solution vector no.    7; norm of residual   9.78D-04
 RSP solution vector no.    8; norm of residual   9.76D-04
 RSP solution vector no.    9; norm of residual   9.73D-04

 *** RSPCTL MICROITERATIONS CONVERGED


           Final output of second order properties from linear response
           ------------------------------------------------------------


@ Spin symmetry of operators: singlet

 Note that minus the linear response function: - << A; B >>(omega) is printed.
 The results are of quadratic accuracy using Sellers formula.

@ FREQUENCY INDEPENDENT SECOND ORDER PROPERTIES

@ -<< XDIPLEN  ; XDIPLEN  >> =  1.074197756789E+01

@ FREQUENCY DEPENDENT SECOND ORDER PROPERTIES WITH FREQUENCY :

@    a.u.:  3.0119000D-02
@    cm-1:  6.6103564D+03
@    eV  :  8.1957968D-01
@  kJ/mol:  7.9077422D+01
@    nm  :  1.5127777D+03

@ -<< XDIPLEN  ; XDIPLEN  >> =  1.076463804286E+01

@ FREQUENCY DEPENDENT SECOND ORDER PROPERTIES WITH FREQUENCY :

@    a.u.:  6.0238000D-02
@    cm-1:  1.3220713D+04
@    eV  :  1.6391594D+00
@  kJ/mol:  1.5815484D+02
@    nm  :  7.5638887D+02

@ -<< XDIPLEN  ; XDIPLEN  >> =  1.083336516498E+01

@ FREQUENCY DEPENDENT SECOND ORDER PROPERTIES WITH FREQUENCY :

@    a.u.:  9.0357000D-02
@    cm-1:  1.9831069D+04
@    eV  :  2.4587390D+00
@  kJ/mol:  2.3723227D+02
@    nm  :  5.0425925D+02

@ -<< XDIPLEN  ; XDIPLEN  >> =  1.095047012029E+01

@ FREQUENCY DEPENDENT SECOND ORDER PROPERTIES WITH FREQUENCY :

@    a.u.:  1.2047600D-01
@    cm-1:  2.6441425D+04
@    eV  :  3.2783187D+00
@  kJ/mol:  3.1630969D+02
@    nm  :  3.7819444D+02

@ -<< XDIPLEN  ; XDIPLEN  >> =  1.112006770035E+01

@ FREQUENCY DEPENDENT SECOND ORDER PROPERTIES WITH FREQUENCY :

@    a.u.:  1.5059500D-01
@    cm-1:  3.3051782D+04
@    eV  :  4.0978984D+00
@  kJ/mol:  3.9538711D+02
@    nm  :  3.0255555D+02

@ -<< XDIPLEN  ; XDIPLEN  >> =  1.134853199774E+01

@ FREQUENCY DEPENDENT SECOND ORDER PROPERTIES WITH FREQUENCY :

@    a.u.:  1.8071400D-01
@    cm-1:  3.9662138D+04
@    eV  :  4.9174781D+00
@  kJ/mol:  4.7446453D+02
@    nm  :  2.5212962D+02

@ -<< XDIPLEN  ; XDIPLEN  >> =  1.164528284397E+01

@ FREQUENCY DEPENDENT SECOND ORDER PROPERTIES WITH FREQUENCY :

@    a.u.:  2.1083300D-01
@    cm-1:  4.6272495D+04
@    eV  :  5.7370578D+00
@  kJ/mol:  5.5354196D+02
@    nm  :  2.1611111D+02

@ -<< XDIPLEN  ; XDIPLEN  >> =  1.202412802695E+01

@ FREQUENCY DEPENDENT SECOND ORDER PROPERTIES WITH FREQUENCY :

@    a.u.:  2.4095200D-01
@    cm-1:  5.2882851D+04
@    eV  :  6.5566374D+00
@  kJ/mol:  6.3261938D+02
@    nm  :  1.8909722D+02

@ -<< XDIPLEN  ; XDIPLEN  >> =  1.250562101433E+01


 Time used in linear response calculation is      1.41 CPU seconds for symmetry 2
 ----------------------------------------------------------------
 ----- Linear response calculation
 ----- Symmetry of excitation/property operator(s)    3  ( B2u)
 ----------------------------------------------------------------

 Number of excitations of this symmetry            0
 Number of response properties of this symmetry    1
 Number of C6/C8 properties of this symmetry       0


 Perturbation symmetry.     KSYMOP:           3
 Perturbation spin symmetry.TRPLET:           F
 Orbital variables.         KZWOPT:         163
 Configuration variables.   KZCONF:           0
 Total number of variables. KZVAR :         163


 RSPLR -- linear response calculation for symmetry 3  ( B2u)
 RSPLR -- operator label : YDIPLEN 
 RSPLR -- operator spin  :   0
 RSPLR -- frequencies    :     0.000000  0.030119  0.060238  0.090357  0.120476
                               0.150595  0.180714  0.210833  0.240952



 ---  SOLVING SETS OF LINEAR EQUATIONS FOR LINEAR RESPONSE PROPERTIES ---

 Operator symmetry = 3  ( B2u); triplet =   F

RSPORT:    1 out of    9 new trial vectors linear dependent

 ** RSPCTL MICROITERATION NUMBER    1

       No.  Residual tot.,    conf., and orb.    Bnorm      Frequency 
      ----------------------------------------------------------------
         1    3.86322D-01  0.00D+00  3.86D-01  2.58D+00    0.00000D+00
         2    3.88144D-01  0.00D+00  3.88D-01  2.59D+00    3.01190D-02
         3    3.93682D-01  0.00D+00  3.94D-01  2.62D+00    6.02380D-02
         4    4.03160D-01  0.00D+00  4.03D-01  2.68D+00    9.03570D-02
         5    4.16988D-01  0.00D+00  4.17D-01  2.76D+00    1.20476D-01
         6    4.35812D-01  0.00D+00  4.36D-01  2.86D+00    1.50595D-01
         7    4.60621D-01  0.00D+00  4.61D-01  3.00D+00    1.80714D-01
         8    4.92918D-01  0.00D+00  4.93D-01  3.19D+00    2.10833D-01
         9    5.35046D-01  0.00D+00  5.35D-01  3.42D+00    2.40952D-01

 ** RSPCTL MICROITERATION NUMBER    2

       No.  Residual tot.,    conf., and orb.    Bnorm      Frequency 
      ----------------------------------------------------------------
         1    1.78193D-02  0.00D+00  1.78D-02  2.59D+00    0.00000D+00
         2    1.79140D-02  0.00D+00  1.79D-02  2.61D+00    3.01190D-02
         3    1.82030D-02  0.00D+00  1.82D-02  2.64D+00    6.02380D-02
         4    1.87009D-02  0.00D+00  1.87D-02  2.69D+00    9.03570D-02
         5    1.94341D-02  0.00D+00  1.94D-02  2.77D+00    1.20476D-01
         6    2.04444D-02  0.00D+00  2.04D-02  2.88D+00    1.50595D-01
         7    2.17950D-02  0.00D+00  2.18D-02  3.03D+00    1.80714D-01
         8    2.35820D-02  0.00D+00  2.36D-02  3.22D+00    2.10833D-01
         9    2.59539D-02  0.00D+00  2.60D-02  3.46D+00    2.40952D-01

 ** RSPCTL MICROITERATION NUMBER    3

       No.  Residual tot.,    conf., and orb.    Bnorm      Frequency 
      ----------------------------------------------------------------
         1    2.70130D-03  0.00D+00  2.70D-03  2.59D+00    0.00000D+00
         2    2.71260D-03  0.00D+00  2.71D-03  2.61D+00    3.01190D-02
         3    2.74691D-03  0.00D+00  2.75D-03  2.64D+00    6.02380D-02
         4    2.80550D-03  0.00D+00  2.81D-03  2.69D+00    9.03570D-02
         5    2.89068D-03  0.00D+00  2.89D-03  2.77D+00    1.20476D-01
         6    3.00600D-03  0.00D+00  3.01D-03  2.88D+00    1.50595D-01
         7    3.15677D-03  0.00D+00  3.16D-03  3.03D+00    1.80714D-01
         8    3.35086D-03  0.00D+00  3.35D-03  3.22D+00    2.10833D-01
         9    3.60014D-03  0.00D+00  3.60D-03  3.46D+00    2.40952D-01

 ** RSPCTL MICROITERATION NUMBER    4

       No.  Residual tot.,    conf., and orb.    Bnorm      Frequency 
      ----------------------------------------------------------------
         1    1.11612D-04  0.00D+00  1.12D-04  2.59D+00    0.00000D+00
         2    1.12180D-04  0.00D+00  1.12D-04  2.61D+00    3.01190D-02
         3    1.13905D-04  0.00D+00  1.14D-04  2.64D+00    6.02380D-02
         4    1.16861D-04  0.00D+00  1.17D-04  2.69D+00    9.03570D-02
         5    1.21178D-04  0.00D+00  1.21D-04  2.77D+00    1.20476D-01
         6    1.27059D-04  0.00D+00  1.27D-04  2.88D+00    1.50595D-01
         7    1.34802D-04  0.00D+00  1.35D-04  3.03D+00    1.80714D-01
         8    1.44852D-04  0.00D+00  1.45D-04  3.22D+00    2.10833D-01
         9    1.57873D-04  0.00D+00  1.58D-04  3.46D+00    2.40952D-01

 *** THE REQUESTED    9 SOLUTION VECTORS CONVERGED

 Convergence of RSP solution vectors, threshold = 1.00D-03
 ---------------------------------------------------------------
 (dimension of paired reduced space:   70)
 RSP solution vector no.    1; norm of residual   4.30D-05
 RSP solution vector no.    2; norm of residual   4.31D-05
 RSP solution vector no.    3; norm of residual   4.32D-05
 RSP solution vector no.    4; norm of residual   4.34D-05
 RSP solution vector no.    5; norm of residual   4.37D-05
 RSP solution vector no.    6; norm of residual   4.40D-05
 RSP solution vector no.    7; norm of residual   4.45D-05
 RSP solution vector no.    8; norm of residual   4.51D-05
 RSP solution vector no.    9; norm of residual   4.57D-05

 *** RSPCTL MICROITERATIONS CONVERGED


           Final output of second order properties from linear response
           ------------------------------------------------------------


@ Spin symmetry of operators: singlet

 Note that minus the linear response function: - << A; B >>(omega) is printed.
 The results are of quadratic accuracy using Sellers formula.

@ FREQUENCY INDEPENDENT SECOND ORDER PROPERTIES

@ -<< YDIPLEN  ; YDIPLEN  >> =  1.074197769052E+01

@ FREQUENCY DEPENDENT SECOND ORDER PROPERTIES WITH FREQUENCY :

@    a.u.:  3.0119000D-02
@    cm-1:  6.6103564D+03
@    eV  :  8.1957968D-01
@  kJ/mol:  7.9077422D+01
@    nm  :  1.5127777D+03

@ -<< YDIPLEN  ; YDIPLEN  >> =  1.076463816667E+01

@ FREQUENCY DEPENDENT SECOND ORDER PROPERTIES WITH FREQUENCY :

@    a.u.:  6.0238000D-02
@    cm-1:  1.3220713D+04
@    eV  :  1.6391594D+00
@  kJ/mol:  1.5815484D+02
@    nm  :  7.5638887D+02

@ -<< YDIPLEN  ; YDIPLEN  >> =  1.083336529238E+01

@ FREQUENCY DEPENDENT SECOND ORDER PROPERTIES WITH FREQUENCY :

@    a.u.:  9.0357000D-02
@    cm-1:  1.9831069D+04
@    eV  :  2.4587390D+00
@  kJ/mol:  2.3723227D+02
@    nm  :  5.0425925D+02

@ -<< YDIPLEN  ; YDIPLEN  >> =  1.095047025395E+01

@ FREQUENCY DEPENDENT SECOND ORDER PROPERTIES WITH FREQUENCY :

@    a.u.:  1.2047600D-01
@    cm-1:  2.6441425D+04
@    eV  :  3.2783187D+00
@  kJ/mol:  3.1630969D+02
@    nm  :  3.7819444D+02

@ -<< YDIPLEN  ; YDIPLEN  >> =  1.112006784337E+01

@ FREQUENCY DEPENDENT SECOND ORDER PROPERTIES WITH FREQUENCY :

@    a.u.:  1.5059500D-01
@    cm-1:  3.3051782D+04
@    eV  :  4.0978984D+00
@  kJ/mol:  3.9538711D+02
@    nm  :  3.0255555D+02

@ -<< YDIPLEN  ; YDIPLEN  >> =  1.134853215394E+01

@ FREQUENCY DEPENDENT SECOND ORDER PROPERTIES WITH FREQUENCY :

@    a.u.:  1.8071400D-01
@    cm-1:  3.9662138D+04
@    eV  :  4.9174781D+00
@  kJ/mol:  4.7446453D+02
@    nm  :  2.5212962D+02

@ -<< YDIPLEN  ; YDIPLEN  >> =  1.164528301827E+01

@ FREQUENCY DEPENDENT SECOND ORDER PROPERTIES WITH FREQUENCY :

@    a.u.:  2.1083300D-01
@    cm-1:  4.6272495D+04
@    eV  :  5.7370578D+00
@  kJ/mol:  5.5354196D+02
@    nm  :  2.1611111D+02

@ -<< YDIPLEN  ; YDIPLEN  >> =  1.202412822601E+01

@ FREQUENCY DEPENDENT SECOND ORDER PROPERTIES WITH FREQUENCY :

@    a.u.:  2.4095200D-01
@    cm-1:  5.2882851D+04
@    eV  :  6.5566374D+00
@  kJ/mol:  6.3261938D+02
@    nm  :  1.8909722D+02

@ -<< YDIPLEN  ; YDIPLEN  >> =  1.250562124756E+01


 Time used in linear response calculation is      1.90 CPU seconds for symmetry 3
 ----------------------------------------------------------------
 ----- Linear response calculation
 ----- Symmetry of excitation/property operator(s)    5  ( B1u)
 ----------------------------------------------------------------

 Number of excitations of this symmetry            0
 Number of response properties of this symmetry    1
 Number of C6/C8 properties of this symmetry       0


 Perturbation symmetry.     KSYMOP:           5
 Perturbation spin symmetry.TRPLET:           F
 Orbital variables.         KZWOPT:         163
 Configuration variables.   KZCONF:           0
 Total number of variables. KZVAR :         163


 RSPLR -- linear response calculation for symmetry 5  ( B1u)
 RSPLR -- operator label : ZDIPLEN 
 RSPLR -- operator spin  :   0
 RSPLR -- frequencies    :     0.000000  0.030119  0.060238  0.090357  0.120476
                               0.150595  0.180714  0.210833  0.240952



 ---  SOLVING SETS OF LINEAR EQUATIONS FOR LINEAR RESPONSE PROPERTIES ---

 Operator symmetry = 5  ( B1u); triplet =   F


 ** RSPCTL MICROITERATION NUMBER    1

       No.  Residual tot.,    conf., and orb.    Bnorm      Frequency 
      ----------------------------------------------------------------
         1    3.82935D-01  0.00D+00  3.83D-01  2.58D+00    0.00000D+00
         2    3.84363D-01  0.00D+00  3.84D-01  2.59D+00    3.01190D-02
         3    3.88721D-01  0.00D+00  3.89D-01  2.62D+00    6.02380D-02
         4    3.96242D-01  0.00D+00  3.96D-01  2.68D+00    9.03570D-02
         5    4.07353D-01  0.00D+00  4.07D-01  2.76D+00    1.20476D-01
         6    4.22742D-01  0.00D+00  4.23D-01  2.87D+00    1.50595D-01
         7    4.43476D-01  0.00D+00  4.43D-01  3.01D+00    1.80714D-01
         8    4.71214D-01  0.00D+00  4.71D-01  3.19D+00    2.10833D-01
         9    5.08605D-01  0.00D+00  5.09D-01  3.43D+00    2.40952D-01

 ** RSPCTL MICROITERATION NUMBER    2

       No.  Residual tot.,    conf., and orb.    Bnorm      Frequency 
      ----------------------------------------------------------------
         1    1.39659D-02  0.00D+00  1.40D-02  2.59D+00    0.00000D+00
         2    1.40376D-02  0.00D+00  1.40D-02  2.61D+00    3.01190D-02
         3    1.42562D-02  0.00D+00  1.43D-02  2.64D+00    6.02380D-02
         4    1.46330D-02  0.00D+00  1.46D-02  2.69D+00    9.03570D-02
         5    1.51880D-02  0.00D+00  1.52D-02  2.77D+00    1.20476D-01
         6    1.59528D-02  0.00D+00  1.60D-02  2.88D+00    1.50595D-01
         7    1.69753D-02  0.00D+00  1.70D-02  3.03D+00    1.80714D-01
         8    1.83275D-02  0.00D+00  1.83D-02  3.22D+00    2.10833D-01
         9    2.01201D-02  0.00D+00  2.01D-02  3.46D+00    2.40952D-01

 ** RSPCTL MICROITERATION NUMBER    3

       No.  Residual tot.,    conf., and orb.    Bnorm      Frequency 
      ----------------------------------------------------------------
         1    4.07479D-04  0.00D+00  4.07D-04  2.59D+00    0.00000D+00
         2    4.08898D-04  0.00D+00  4.09D-04  2.61D+00    3.01190D-02
         3    4.13267D-04  0.00D+00  4.13D-04  2.64D+00    6.02380D-02
         4    4.20948D-04  0.00D+00  4.21D-04  2.69D+00    9.03570D-02
         5    4.32604D-04  0.00D+00  4.33D-04  2.77D+00    1.20476D-01
         6    4.49314D-04  0.00D+00  4.49D-04  2.88D+00    1.50595D-01
         7    4.72769D-04  0.00D+00  4.73D-04  3.03D+00    1.80714D-01
         8    5.05606D-04  0.00D+00  5.06D-04  3.22D+00    2.10833D-01
         9    5.52008D-04  0.00D+00  5.52D-04  3.46D+00    2.40952D-01

 *** THE REQUESTED    9 SOLUTION VECTORS CONVERGED

 Convergence of RSP solution vectors, threshold = 1.00D-03
 ---------------------------------------------------------------
 (dimension of paired reduced space:   54)
 RSP solution vector no.    1; norm of residual   1.57D-04
 RSP solution vector no.    2; norm of residual   1.57D-04
 RSP solution vector no.    3; norm of residual   1.57D-04
 RSP solution vector no.    4; norm of residual   1.56D-04
 RSP solution vector no.    5; norm of residual   1.56D-04
 RSP solution vector no.    6; norm of residual   1.56D-04
 RSP solution vector no.    7; norm of residual   1.56D-04
 RSP solution vector no.    8; norm of residual   1.57D-04
 RSP solution vector no.    9; norm of residual   1.60D-04

 *** RSPCTL MICROITERATIONS CONVERGED


           Final output of second order properties from linear response
           ------------------------------------------------------------


@ Spin symmetry of operators: singlet

 Note that minus the linear response function: - << A; B >>(omega) is printed.
 The results are of quadratic accuracy using Sellers formula.

@ FREQUENCY INDEPENDENT SECOND ORDER PROPERTIES

@ -<< ZDIPLEN  ; ZDIPLEN  >> =  1.074197768627E+01

@ FREQUENCY DEPENDENT SECOND ORDER PROPERTIES WITH FREQUENCY :

@    a.u.:  3.0119000D-02
@    cm-1:  6.6103564D+03
@    eV  :  8.1957968D-01
@  kJ/mol:  7.9077422D+01
@    nm  :  1.5127777D+03

@ -<< ZDIPLEN  ; ZDIPLEN  >> =  1.076463816234E+01

@ FREQUENCY DEPENDENT SECOND ORDER PROPERTIES WITH FREQUENCY :

@    a.u.:  6.0238000D-02
@    cm-1:  1.3220713D+04
@    eV  :  1.6391594D+00
@  kJ/mol:  1.5815484D+02
@    nm  :  7.5638887D+02

@ -<< ZDIPLEN  ; ZDIPLEN  >> =  1.083336528783E+01

@ FREQUENCY DEPENDENT SECOND ORDER PROPERTIES WITH FREQUENCY :

@    a.u.:  9.0357000D-02
@    cm-1:  1.9831069D+04
@    eV  :  2.4587390D+00
@  kJ/mol:  2.3723227D+02
@    nm  :  5.0425925D+02

@ -<< ZDIPLEN  ; ZDIPLEN  >> =  1.095047024900E+01

@ FREQUENCY DEPENDENT SECOND ORDER PROPERTIES WITH FREQUENCY :

@    a.u.:  1.2047600D-01
@    cm-1:  2.6441425D+04
@    eV  :  3.2783187D+00
@  kJ/mol:  3.1630969D+02
@    nm  :  3.7819444D+02

@ -<< ZDIPLEN  ; ZDIPLEN  >> =  1.112006783780E+01

@ FREQUENCY DEPENDENT SECOND ORDER PROPERTIES WITH FREQUENCY :

@    a.u.:  1.5059500D-01
@    cm-1:  3.3051782D+04
@    eV  :  4.0978984D+00
@  kJ/mol:  3.9538711D+02
@    nm  :  3.0255555D+02

@ -<< ZDIPLEN  ; ZDIPLEN  >> =  1.134853214747E+01

@ FREQUENCY DEPENDENT SECOND ORDER PROPERTIES WITH FREQUENCY :

@    a.u.:  1.8071400D-01
@    cm-1:  3.9662138D+04
@    eV  :  4.9174781D+00
@  kJ/mol:  4.7446453D+02
@    nm  :  2.5212962D+02

@ -<< ZDIPLEN  ; ZDIPLEN  >> =  1.164528301050E+01

@ FREQUENCY DEPENDENT SECOND ORDER PROPERTIES WITH FREQUENCY :

@    a.u.:  2.1083300D-01
@    cm-1:  4.6272495D+04
@    eV  :  5.7370578D+00
@  kJ/mol:  5.5354196D+02
@    nm  :  2.1611111D+02

@ -<< ZDIPLEN  ; ZDIPLEN  >> =  1.202412821636E+01

@ FREQUENCY DEPENDENT SECOND ORDER PROPERTIES WITH FREQUENCY :

@    a.u.:  2.4095200D-01
@    cm-1:  5.2882851D+04
@    eV  :  6.5566374D+00
@  kJ/mol:  6.3261938D+02
@    nm  :  1.8909722D+02

@ -<< ZDIPLEN  ; ZDIPLEN  >> =  1.250562123512E+01


 Time used in linear response calculation is      1.44 CPU seconds for symmetry 5

  Total CPU  time used in RESPONSE:   4.76 seconds
  Total wall time used in RESPONSE:   4.77 seconds


                   .-------------------------------------------.
                   | End of Dynamic Property Section (RESPONS) |
                   `-------------------------------------------'

  Total CPU  time used in DALTON:   5.89 seconds
  Total wall time used in DALTON:   5.92 seconds

 
     Date and time (Linux)  : Wed Jan 11 14:15:24 2023
     Host name              : cn021                                   
