

     ************************************************************************
     *************** Dalton - An Electronic Structure Program ***************
     ************************************************************************

    This is output from DALTON release Dalton2020.0 (2020)
         ( Web site: http://daltonprogram.org )

   ----------------------------------------------------------------------------

    NOTE:
     
    Dalton is an experimental code for the evaluation of molecular
    properties using (MC)SCF, DFT, CI, and CC wave functions.
    The authors accept no responsibility for the performance of
    the code or for the correctness of the results.
     
    The code (in whole or part) is provided under a licence and
    is not to be reproduced for further distribution without
    the written permission of the authors or their representatives.
     
    See the home page "http://daltonprogram.org" for further information.
     
    If results obtained with this code are published,
    the appropriate citations would be both of:
     
       K. Aidas, C. Angeli, K. L. Bak, V. Bakken, R. Bast,
       L. Boman, O. Christiansen, R. Cimiraglia, S. Coriani,
       P. Dahle, E. K. Dalskov, U. Ekstroem,
       T. Enevoldsen, J. J. Eriksen, P. Ettenhuber, B. Fernandez,
       L. Ferrighi, H. Fliegl, L. Frediani, K. Hald, A. Halkier,
       C. Haettig, H. Heiberg, T. Helgaker, A. C. Hennum,
       H. Hettema, E. Hjertenaes, S. Hoest, I.-M. Hoeyvik,
       M. F. Iozzi, B. Jansik, H. J. Aa. Jensen, D. Jonsson,
       P. Joergensen, J. Kauczor, S. Kirpekar,
       T. Kjaergaard, W. Klopper, S. Knecht, R. Kobayashi, H. Koch,
       J. Kongsted, A. Krapp, K. Kristensen, A. Ligabue,
       O. B. Lutnaes, J. I. Melo, K. V. Mikkelsen, R. H. Myhre,
       C. Neiss, C. B. Nielsen, P. Norman, J. Olsen,
       J. M. H. Olsen, A. Osted, M. J. Packer, F. Pawlowski,
       T. B. Pedersen, P. F. Provasi, S. Reine, Z. Rinkevicius,
       T. A. Ruden, K. Ruud, V. Rybkin, P. Salek, C. C. M. Samson,
       A. Sanchez de Meras, T. Saue, S. P. A. Sauer,
       B. Schimmelpfennig, K. Sneskov, A. H. Steindal,
       K. O. Sylvester-Hvid, P. R. Taylor, A. M. Teale,
       E. I. Tellgren, D. P. Tew, A. J. Thorvaldsen, L. Thoegersen,
       O. Vahtras, M. A. Watson, D. J. D. Wilson, M. Ziolkowski
       and H. Agren,
       "The Dalton quantum chemistry program system",
       WIREs Comput. Mol. Sci. 2014, 4:269–284 (doi: 10.1002/wcms.1172)
     
    and
     
       Dalton, a molecular electronic structure program,
       Release Dalton2020.0 (2020), see http://daltonprogram.org
   ----------------------------------------------------------------------------

    Authors in alphabetical order (Major contribution(s) in parenthesis):

  Kestutis Aidas,           Vilnius University,           Lithuania   (QM/MM)
  Celestino Angeli,         University of Ferrara,        Italy       (NEVPT2)
  Keld L. Bak,              UNI-C,                        Denmark     (AOSOPPA, non-adiabatic coupling, magnetic properties)
  Vebjoern Bakken,          University of Oslo,           Norway      (DALTON; geometry optimizer, symmetry detection)
  Radovan Bast,             UiT The Arctic U. of Norway,  Norway      (DALTON installation and execution frameworks)
  Pablo Baudin,             University of Valencia,       Spain       (Cholesky excitation energies)
  Linus Boman,              NTNU,                         Norway      (Cholesky decomposition and subsystems)
  Bruno N. Cabral Tenorio,  Technical Univ. of Denmark,   Denmark     (Lanczos-based CC methods)
  Ove Christiansen,         Aarhus University,            Denmark     (CC module)
  Renzo Cimiraglia,         University of Ferrara,        Italy       (NEVPT2)
  Sonia Coriani,            Technical Univ. of Denmark,   Denmark     (CC and RESPONS modules)
  Janusz Cukras,            University of Warsaw,         Poland      (MChD in RESPONS)
  Paal Dahle,               University of Oslo,           Norway      (Parallelization)
  Erik K. Dalskov,          UNI-C,                        Denmark     (SOPPA)
  Thomas Enevoldsen,        Univ. of Southern Denmark,    Denmark     (SOPPA)
  Janus J. Eriksen,         Aarhus University,            Denmark     (Polarizable embedding, TDA)
  Rasmus Faber,             Technical Univ. of Denmark,   Denmark     (Vib.avg. NMR w. SOPPA, parallel AO-SOPPA, CVS-CC and EOMCC)
  Tobias Fahleson,          KTH Stockholm,                Sweden      (Damped cubic response)
  Berta Fernandez,          U. of Santiago de Compostela, Spain       (Doublet spin, ESR in RESPONS)
  Lara Ferrighi,            Aarhus University,            Denmark     (PCM Cubic response)
  Heike Fliegl,             University of Oslo,           Norway      (CCSD(R12))
  Luca Frediani,            UiT The Arctic U. of Norway,  Norway      (PCM)
  Emmanuel Fromager,        Univ. Strasbourg,             France      (MC-srDFT)
  Bin Gao,                  UiT The Arctic U. of Norway,  Norway      (Gen1Int library)
  Andre S. P. Gomes,        CNRS/Universite de Lille,     France      (Frozen density embedding)
  Christof Haettig,         Ruhr-University Bochum,       Germany     (CC module)
  Kasper Hald,              Aarhus University,            Denmark     (CC module)
  Asger Halkier,            Aarhus University,            Denmark     (CC module)
  Frederik Beyer Hansen,    University of Copenhagen,     Denmark     (Parallel AO-SOPPA)
  Erik D. Hedegaard,        Univ. of Southern Denmark,    Denmark     (Polarizable embedding, QM/MM, and MC-srDFT)
  Hanne Heiberg,            University of Oslo,           Norway      (Geometry analysis, selected one-electron integrals)
  Trygve Helgaker,          University of Oslo,           Norway      (DALTON; ABACUS, ERI, DFT modules, London, and much more)
  Alf Christian Hennum,     University of Oslo,           Norway      (Parity violation)
  Hinne Hettema,            University of Auckland,       New Zealand (Quadratic response in RESPONS; SIRIUS supersymmetry)
  Eirik Hjertenaes,         NTNU,                         Norway      (Cholesky decomposition)
  Pi A. B. Haase,           University of Copenhagen,     Denmark     (Triplet AO-SOPPA)
  Maria Francesca Iozzi,    University of Oslo,           Norway      (RPA)
  Christoph Jacob           TU Braunschweig               Germany     (Frozen density embedding)
  Brano Jansik              Technical Univ. of Ostrava    Czech Rep.  (DFT cubic response)
  Hans Joergen Aa. Jensen,  Univ. of Southern Denmark,    Denmark     (DALTON; SIRIUS, RESPONS, ABACUS, MC-srDFT, and much more)
  Dan Jonsson,              UiT The Arctic U. of Norway,  Norway      (Cubic response in RESPONS module)
  Poul Joergensen,          Aarhus University,            Denmark     (RESPONS, ABACUS, and CC modules)
  Maciej Kaminski,          University of Warsaw,         Poland      (CPPh in RESPONS)
  Joanna Kauczor,           Linkoeping University,        Sweden      (Complex polarization propagator (CPP) module)
  Sheela Kirpekar,          Univ. of Southern Denmark,    Denmark     (Mass-velocity & Darwin integrals)
  Erik Kjellgren,           Univ. of Southern Denmark,    Denmark     (MC-srDFT)
  Wim Klopper,              KIT Karlsruhe,                Germany     (R12 code in CC, SIRIUS, and ABACUS modules)
  Stefan Knecht,            ETH Zurich,                   Switzerland (Parallel CI and MCSCF, MC-srDFT)
  Rika Kobayashi,           Australian National Univ.,    Australia   (DIIS in CC, London in MCSCF)
  Henrik Koch,              NTNU,                         Norway      (CC module, Cholesky decomposition)
  Jacob Kongsted,           Univ. of Southern Denmark,    Denmark     (Polarizable embedding, polarizable density embedding, QM/MM)
  Andrea Ligabue,           University of Modena,         Italy       (CTOCD, AOSOPPA)
  Nanna H. List             Univ. of Southern Denmark,    Denmark     (Polarizable embedding)
  Ola B. Lutnaes,           University of Oslo,           Norway      (DFT Hessian)
  Juan I. Melo,             University of Buenos Aires,   Argentina   (LRESC, Relativistic Effects on NMR Shieldings)
  Kurt V. Mikkelsen,        University of Copenhagen,     Denmark     (MC-SCRF and QM/MM)
  Rolf H. Myhre,            NTNU,                         Norway      (Subsystems and CC3)
  Christian Neiss,          Univ. Erlangen-Nuernberg,     Germany     (CCSD(R12))
  Christian B. Nielsen,     University of Copenhagen,     Denmark     (QM/MM)
  Patrick Norman,           KTH Stockholm,                Sweden      (Cubic response and complex frequency response in RESPONS)
  Jeppe Olsen,              Aarhus University,            Denmark     (SIRIUS CI/density modules)
  Jogvan Magnus H. Olsen,   Aarhus University,            Denmark     (Polarizable embedding and polarizable density embedding)
  Anders Osted,             Copenhagen University,        Denmark     (QM/MM)
  Martin J. Packer,         University of Sheffield,      UK          (SOPPA)
  Filip Pawlowski,          Kazimierz Wielki University,  Poland      (CC3)
  Morten N. Pedersen,       Univ. of Southern Denmark,    Denmark     (Polarizable embedding)
  Thomas B. Pedersen,       University of Oslo,           Norway      (Cholesky decomposition)
  Patricio F. Provasi,      University of Northeastern,   Argentina   (Analysis of coupling constants in localized orbitals)
  Peter Reinholdt,          Univ. of Southern Denmark,    Denmark     (Polarizable embedding and polarizable density embedding)
  Zilvinas Rinkevicius,     KTH Stockholm,                Sweden      (open-shell DFT, ESR)
  Elias Rudberg,            KTH Stockholm,                Sweden      (DFT grid and basis info)
  Torgeir A. Ruden,         University of Oslo,           Norway      (Numerical derivatives in ABACUS)
  Kenneth Ruud,             UiT The Arctic U. of Norway,  Norway      (DALTON; ABACUS magnetic properties and much more)
  Pawel Salek,              KTH Stockholm,                Sweden      (DALTON; DFT code)
  Claire C. M. Samson       University of Karlsruhe       Germany     (Boys localization, r12 integrals in ERI)
  Alfredo Sanchez de Meras, University of Valencia,       Spain       (CC module, Cholesky decomposition)
  Trond Saue,               Paul Sabatier University,     France      (direct Fock matrix construction)
  Stephan P. A. Sauer,      University of Copenhagen,     Denmark     (SOPPA(CCSD), SOPPA prop., AOSOPPA, vibrational g-factors)
  Bernd Schimmelpfennig,    Forschungszentrum Karlsruhe,  Germany     (AMFI module)
  Anna K. Schnack-Petersen, University of Copenhagen,     Denmark     (RPA(D) and HRPA(D) properties in AOSOPPA)
  Kristian Sneskov,         Aarhus University,            Denmark     (Polarizable embedding, QM/MM)
  Arnfinn H. Steindal,      UiT The Arctic U. of Norway,  Norway      (parallel QM/MM, polarizable embedding)
  Casper Steinmann,         Aalborg University,           Denmark     (QFIT, polarizable embedding)
  K. O. Sylvester-Hvid,     University of Copenhagen,     Denmark     (MC-SCRF)
  Peter R. Taylor,          VLSCI/Univ. of Melbourne,     Australia   (Symmetry handling ABACUS, integral transformation)
  Andrew M. Teale,          University of Nottingham,     England     (DFT-AC, DFT-D)
  David P. Tew,             University of Bristol,        England     (CCSD(R12))
  Julien Toulouse,          Sorbonne Univ.,               France      (MC-srDFT)
  Olav Vahtras,             KTH Stockholm,                Sweden      (Triplet response, spin-orbit, ESR, TDDFT, open-shell DFT)
  Lucas Visscher,           Vrije Universiteit Amsterdam, Netherlands (Frozen density embedding)
  David J. Wilson,          La Trobe University,          Australia   (DFT Hessian and DFT magnetizabilities)
  Hans Agren,               KTH Stockholm,                Sweden      (SIRIUS module, RESPONS, MC-SCRF solvation)
 --------------------------------------------------------------------------------

     Date and time (Linux)  : Wed Jan 11 15:39:02 2023
     Host name              : cn037                                   

 * Work memory size             :    64000000 =  488.28 megabytes.

 * Directories for basis set searches:
   1) /gpfs/projects/rjh/adrian/fd_compare/dalton/hf/Ar/dipole
   2) /gpfs/projects/rjh/adrian/dalton/build/basis


Compilation information
-----------------------

 Who compiled             | ahurtado
 Host                     | sn-mem
 System                   | Linux-3.10.0-1160.24.1.el7.x86_64
 CMake generator          | Unix Makefiles
 Processor                | x86_64
 64-bit integers          | OFF
 MPI                      | ON
 Fortran compiler         | /gpfs/software/intel/oneAPI/2021_4/mpi/2021.4.0/bi
                          | n/mpif90
 Fortran compiler version | GNU Fortran (GCC) 11.2.0
 C compiler               | /gpfs/software/intel/oneAPI/2021_4/mpi/2021.4.0/bi
                          | n/mpicc
 C compiler version       | gcc (GCC) 11.2.0
 C++ compiler             | /gpfs/software/intel/oneAPI/2021_4/mpi/2021.4.0/bi
                          | n/mpicxx
 C++ compiler version     | unknown
 BLAS                     | /gpfs/software/intel/oneAPI/2021_4/mkl/2021.4.0/li
                          | b/intel64/libmkl_gf_lp64.so;/gpfs/software/intel/o
                          | neAPI/2021_4/mkl/2021.4.0/lib/intel64/libmkl_seque
                          | ntial.so;/gpfs/software/intel/oneAPI/2021_4/mkl/20
                          | 21.4.0/lib/intel64/libmkl_core.so;/usr/lib64/libpt
                          | hread.so;/usr/lib64/libm.so
 LAPACK                   | /gpfs/software/intel/oneAPI/2021_4/mkl/2021.4.0/li
                          | b/intel64/libmkl_lapack95_lp64.a;/gpfs/software/in
                          | tel/oneAPI/2021_4/mkl/2021.4.0/lib/intel64/libmkl_
                          | gf_lp64.so
 Static linking           | OFF
 Last Git revision        | 66052b3af5ea7225e31178bf9a8b031913c72190
 Git branch               | (HEAD detached at Dalton2020.0)
 Configuration time       | 2023-01-11 13:33:37.731835

 * MPI parallel run using 20 processes.


   Content of the .dal input file
 ----------------------------------

**DALTON INPUT
.RUN RESPONSE
.DIRECT
**WAVE FUNCTIONS
.HF
**RESPONSE
*LINEAR
.DIPLEN
.FREQUENCIES
9
0.0 0.030119 0.060238 0.09035699999999999 0.120476 0.150595 0.18071399999999999 0.210833 0.240952
**END OF DALTON INPUT


   Content of the .mol file
 ----------------------------

BASIS
d-aug-cc-pCVQZ
blah
blah
Atomtype=1 Atomic
Charge=18 Atoms=1
Ar_a 0.000000000000 0.000000000000 0.000000000000


       *******************************************************************
       *********** Output from DALTON general input processing ***********
       *******************************************************************

 --------------------------------------------------------------------------------
   Overall default print level:    0
   Print level for DALTON.STAT:    1

    Parallel calculation using MPI
    AO-direct calculation (in sections where implemented)
    HERMIT 1- and 2-electron integral sections will be executed
    "Old" integral transformation used (limited to max 255 basis functions)
    Wave function sections will be executed (SIRIUS module)
    Dynamic molecular response properties section will be executed (RESPONSE module)
 --------------------------------------------------------------------------------


   ****************************************************************************
   *************** Output of molecule and basis set information ***************
   ****************************************************************************


    The two title cards from your ".mol" input:
    ------------------------------------------------------------------------
 1: blah                                                                    
 2: blah                                                                    
    ------------------------------------------------------------------------

  Atomic type no.    1
  --------------------
  Nuclear charge:  18.00000
  Number of symmetry independent centers:    1
  Number of basis sets to read;    2
  Basis set file used for this atomic type with Z =  18 :
     "/gpfs/projects/rjh/adrian/dalton/build/basis/aug-cc-pCVQZ"


                      SYMADD: Requested addition of symmetry
                      --------------------------------------

 Symmetry test threshold:  5.00E-06

@   The molecule is centered at center of mass and rotated
@   so principal axes of inertia are along coordinate axes.

 Symmetry class found: D(oo,h)        

 Symmetry Independent Centres             
 ----------------------------
Ar_a  18 :      0.00000000     0.00000000     0.00000000  Isotope  1

 The following symmetry elements were found:   X  Y  Z  


                         SYMGRP: Point group information
                         -------------------------------

@    Full point group is: D(oo,h)        
@    Represented as:      D2h

@  * The irrep name for each symmetry:    1: Ag     2: B3u    3: B2u    4: B1g    5: B1u    6: B2g    7: B3g    8: Au 


   * The point group was generated by:

      Reflection in the yz-plane
      Reflection in the xz-plane
      Reflection in the xy-plane

   * Group multiplication table

        |  E   C2z  C2y  C2x   i   Oxy  Oxz  Oyz
   -----+----------------------------------------
     E  |  E   C2z  C2y  C2x   i   Oxy  Oxz  Oyz
    C2z | C2z   E   C2x  C2y  Oxy   i   Oyz  Oxz
    C2y | C2y  C2x   E   C2z  Oxz  Oyz   i   Oxy
    C2x | C2x  C2y  C2z   E   Oyz  Oxz  Oxy   i 
     i  |  i   Oxy  Oxz  Oyz   E   C2z  C2y  C2x
    Oxy | Oxy   i   Oyz  Oxz  C2z   E   C2x  C2y
    Oxz | Oxz  Oyz   i   Oxy  C2y  C2x   E   C2z
    Oyz | Oyz  Oxz  Oxy   i   C2x  C2y  C2z   E 

   * Character table

        |  E   C2z  C2y  C2x   i   Oxy  Oxz  Oyz
   -----+----------------------------------------
    Ag  |   1    1    1    1    1    1    1    1
    B3u |   1   -1   -1    1   -1    1    1   -1
    B2u |   1   -1    1   -1   -1    1   -1    1
    B1g |   1    1   -1   -1    1    1   -1   -1
    B1u |   1    1   -1   -1   -1   -1    1    1
    B2g |   1   -1    1   -1    1   -1    1   -1
    B3g |   1   -1   -1    1    1   -1   -1    1
    Au  |   1    1    1    1   -1   -1   -1   -1

   * Direct product table

        | Ag   B3u  B2u  B1g  B1u  B2g  B3g  Au 
   -----+----------------------------------------
    Ag  | Ag   B3u  B2u  B1g  B1u  B2g  B3g  Au 
    B3u | B3u  Ag   B1g  B2u  B2g  B1u  Au   B3g
    B2u | B2u  B1g  Ag   B3u  B3g  Au   B1u  B2g
    B1g | B1g  B2u  B3u  Ag   Au   B3g  B2g  B1u
    B1u | B1u  B2g  B3g  Au   Ag   B3u  B2u  B1g
    B2g | B2g  B1u  Au   B3g  B3u  Ag   B1g  B2u
    B3g | B3g  Au   B1u  B2g  B2u  B1g  Ag   B3u
    Au  | Au   B3g  B2g  B1u  B1g  B2u  B3u  Ag 


                                 Isotopic Masses
                                 ---------------

                           Ar_a       39.962383

                       Total mass:    39.962383 amu
                       Natural abundance:  99.600 %

 Center-of-mass coordinates (a.u.):    0.000000    0.000000    0.000000
 Center-of-mass coordinates (Angs):    0.000000    0.000000    0.000000


  Atoms and basis sets
  --------------------

  Number of atom types :    1
  Total number of atoms:    1

  Basis set used is "d-aug-cc-pCVQZ" from the basis set library.

  label    atoms   charge   prim   cont     basis
  ----------------------------------------------------------------------
  Ar          1   18.0000   187   159      [21s16p8d6f4g|11s10p8d6f4g]                        
  ----------------------------------------------------------------------
  total:      1   18.0000   187   159
  ----------------------------------------------------------------------
  Spherical harmonic basis used.

  Threshold for neglecting AO integrals:  1.00D-12


  Cartesian Coordinates (a.u.)
  ----------------------------

  Total number of coordinates:    3
  Ar_a    :     1  x   0.0000000000    2  y   0.0000000000    3  z   0.0000000000


  Symmetry Coordinates
  --------------------

  Number of coordinates in each symmetry:     0    1    1    0    1    0    0    0

  Symmetry  B3u ( 2)

    1   Ar_a  x    1

  Symmetry  B2u ( 3)

    2   Ar_a  y    2

  Symmetry  B1u ( 5)

    3   Ar_a  z    3


@ This is an atomic calculation.


  Symmetry Orbitals
  -----------------

  Number of orbitals in each symmetry:          39   22   22   16   22   16   16    6


  Symmetry  Ag ( 1)

    1     Ar_a     1s         1
    2     Ar_a     1s         2
    3     Ar_a     1s         3
    4     Ar_a     1s         4
    5     Ar_a     1s         5
    6     Ar_a     1s         6
    7     Ar_a     1s         7
    8     Ar_a     1s         8
    9     Ar_a     1s         9
   10     Ar_a     1s        10
   11     Ar_a     1s        11
   12     Ar_a     3d0       44
   13     Ar_a     3d2+      46
   14     Ar_a     3d0       49
   15     Ar_a     3d2+      51
   16     Ar_a     3d0       54
   17     Ar_a     3d2+      56
   18     Ar_a     3d0       59
   19     Ar_a     3d2+      61
   20     Ar_a     3d0       64
   21     Ar_a     3d2+      66
   22     Ar_a     3d0       69
   23     Ar_a     3d2+      71
   24     Ar_a     3d0       74
   25     Ar_a     3d2+      76
   26     Ar_a     3d0       79
   27     Ar_a     3d2+      81
   28     Ar_a     5g0      128
   29     Ar_a     5g2+     130
   30     Ar_a     5g4+     132
   31     Ar_a     5g0      137
   32     Ar_a     5g2+     139
   33     Ar_a     5g4+     141
   34     Ar_a     5g0      146
   35     Ar_a     5g2+     148
   36     Ar_a     5g4+     150
   37     Ar_a     5g0      155
   38     Ar_a     5g2+     157
   39     Ar_a     5g4+     159


  Symmetry  B3u( 2)

   40     Ar_a     2px       12
   41     Ar_a     2px       15
   42     Ar_a     2px       18
   43     Ar_a     2px       21
   44     Ar_a     2px       24
   45     Ar_a     2px       27
   46     Ar_a     2px       30
   47     Ar_a     2px       33
   48     Ar_a     2px       36
   49     Ar_a     2px       39
   50     Ar_a     4f1+      86
   51     Ar_a     4f3+      88
   52     Ar_a     4f1+      93
   53     Ar_a     4f3+      95
   54     Ar_a     4f1+     100
   55     Ar_a     4f3+     102
   56     Ar_a     4f1+     107
   57     Ar_a     4f3+     109
   58     Ar_a     4f1+     114
   59     Ar_a     4f3+     116
   60     Ar_a     4f1+     121
   61     Ar_a     4f3+     123


  Symmetry  B2u( 3)

   62     Ar_a     2py       13
   63     Ar_a     2py       16
   64     Ar_a     2py       19
   65     Ar_a     2py       22
   66     Ar_a     2py       25
   67     Ar_a     2py       28
   68     Ar_a     2py       31
   69     Ar_a     2py       34
   70     Ar_a     2py       37
   71     Ar_a     2py       40
   72     Ar_a     4f3-      82
   73     Ar_a     4f1-      84
   74     Ar_a     4f3-      89
   75     Ar_a     4f1-      91
   76     Ar_a     4f3-      96
   77     Ar_a     4f1-      98
   78     Ar_a     4f3-     103
   79     Ar_a     4f1-     105
   80     Ar_a     4f3-     110
   81     Ar_a     4f1-     112
   82     Ar_a     4f3-     117
   83     Ar_a     4f1-     119


  Symmetry  B1g( 4)

   84     Ar_a     3d2-      42
   85     Ar_a     3d2-      47
   86     Ar_a     3d2-      52
   87     Ar_a     3d2-      57
   88     Ar_a     3d2-      62
   89     Ar_a     3d2-      67
   90     Ar_a     3d2-      72
   91     Ar_a     3d2-      77
   92     Ar_a     5g4-     124
   93     Ar_a     5g2-     126
   94     Ar_a     5g4-     133
   95     Ar_a     5g2-     135
   96     Ar_a     5g4-     142
   97     Ar_a     5g2-     144
   98     Ar_a     5g4-     151
   99     Ar_a     5g2-     153


  Symmetry  B1u( 5)

  100     Ar_a     2pz       14
  101     Ar_a     2pz       17
  102     Ar_a     2pz       20
  103     Ar_a     2pz       23
  104     Ar_a     2pz       26
  105     Ar_a     2pz       29
  106     Ar_a     2pz       32
  107     Ar_a     2pz       35
  108     Ar_a     2pz       38
  109     Ar_a     2pz       41
  110     Ar_a     4f0       85
  111     Ar_a     4f2+      87
  112     Ar_a     4f0       92
  113     Ar_a     4f2+      94
  114     Ar_a     4f0       99
  115     Ar_a     4f2+     101
  116     Ar_a     4f0      106
  117     Ar_a     4f2+     108
  118     Ar_a     4f0      113
  119     Ar_a     4f2+     115
  120     Ar_a     4f0      120
  121     Ar_a     4f2+     122


  Symmetry  B2g( 6)

  122     Ar_a     3d1+      45
  123     Ar_a     3d1+      50
  124     Ar_a     3d1+      55
  125     Ar_a     3d1+      60
  126     Ar_a     3d1+      65
  127     Ar_a     3d1+      70
  128     Ar_a     3d1+      75
  129     Ar_a     3d1+      80
  130     Ar_a     5g1+     129
  131     Ar_a     5g3+     131
  132     Ar_a     5g1+     138
  133     Ar_a     5g3+     140
  134     Ar_a     5g1+     147
  135     Ar_a     5g3+     149
  136     Ar_a     5g1+     156
  137     Ar_a     5g3+     158


  Symmetry  B3g( 7)

  138     Ar_a     3d1-      43
  139     Ar_a     3d1-      48
  140     Ar_a     3d1-      53
  141     Ar_a     3d1-      58
  142     Ar_a     3d1-      63
  143     Ar_a     3d1-      68
  144     Ar_a     3d1-      73
  145     Ar_a     3d1-      78
  146     Ar_a     5g3-     125
  147     Ar_a     5g1-     127
  148     Ar_a     5g3-     134
  149     Ar_a     5g1-     136
  150     Ar_a     5g3-     143
  151     Ar_a     5g1-     145
  152     Ar_a     5g3-     152
  153     Ar_a     5g1-     154


  Symmetry  Au ( 8)

  154     Ar_a     4f2-      83
  155     Ar_a     4f2-      90
  156     Ar_a     4f2-      97
  157     Ar_a     4f2-     104
  158     Ar_a     4f2-     111
  159     Ar_a     4f2-     118

  Symmetries of electric field:  B3u(2)  B2u(3)  B1u(5)

  Symmetries of magnetic field:  B3g(7)  B2g(6)  B1g(4)


                     .---------------------------------------.
                     | Starting in Integral Section (HERMIT) |
                     `---------------------------------------'



 ***************************************************************************************
 ****************** Output from **INTEGRALS input processing (HERMIT) ******************
 ***************************************************************************************


 - Using defaults, no **INTEGRALS input found

 Default print level:        1

 Calculation of one-electron Hamiltonian integrals.

 Center of mass  (bohr):      0.000000000000      0.000000000000      0.000000000000
 Operator center (bohr):      0.000000000000      0.000000000000      0.000000000000
 Gauge origin    (bohr):      0.000000000000      0.000000000000      0.000000000000
 Dipole origin   (bohr):      0.000000000000      0.000000000000      0.000000000000


     ************************************************************************
     ************************** Output from HERINT **************************
     ************************************************************************



                      Nuclear contribution to dipole moments
                      --------------------------------------

                    All dipole components are zero by symmetry


  Time used in GABGEN     is       0.67 seconds
  Total CPU  time used in HERMIT:   0.84 seconds
  Total wall time used in HERMIT:   0.85 seconds


                        .----------------------------------.
                        | End of Integral Section (HERMIT) |
                        `----------------------------------'



                   .--------------------------------------------.
                   | Starting in Wave Function Section (SIRIUS) |
                   `--------------------------------------------'


 *** Output from Huckel module :

     Using EWMO model:          T
     Using EHT  model:          F
     Number of Huckel orbitals each symmetry:    5    2    2    1    2    1    1    0

 EWMO - Energy Weighted Maximum Overlap - is a Huckel type method,
        which normally is better than Extended Huckel Theory.
 Reference: Linderberg and Ohrn, Propagators in Quantum Chemistry (Wiley, 1973)

 Huckel EWMO eigenvalues for symmetry :  1
         -118.609800     -12.322100      -1.277300      -0.055556      -0.055556

 Huckel EWMO eigenvalues for symmetry :  2
           -9.571400      -0.591000

 Huckel EWMO eigenvalues for symmetry :  3
           -9.571400      -0.591000

 Huckel EWMO eigenvalues for symmetry :  4
           -0.055556

 Huckel EWMO eigenvalues for symmetry :  5
           -9.571400      -0.591000

 Huckel EWMO eigenvalues for symmetry :  6
           -0.055556

 Huckel EWMO eigenvalues for symmetry :  7
           -0.055556

 **********************************************************************
 *SIRIUS* a direct, restricted step, second order MCSCF program       *
 **********************************************************************

 
     Date and time (Linux)  : Wed Jan 11 15:39:03 2023
     Host name              : cn037                                   

 Title lines from ".mol" input file:
     blah                                                                    
     blah                                                                    

 Print level on unit LUPRI =   2 is   0
 Print level on unit LUW4  =   2 is   5

@    Restricted, closed shell Hartree-Fock calculation.

@    Time-dependent Hartree-Fock calculation (random phase approximation).
 Fock matrices are calculated directly and in parallel without use of integrals on disk.

 Initial molecular orbitals are obtained according to
 ".MOSTART EWMO  " input option

     Wave function specification
     ============================
@    Wave function type        --- HF ---
@    Number of closed shell electrons          18
@    Number of electrons in active shells       0
@    Total charge of the molecule               0

@    Spin multiplicity and 2 M_S                1         0
@    Total number of symmetries                 8 (point group: D2h)
@    Reference state symmetry                   1 (irrep name : Ag )

     Orbital specifications
     ======================
@    Abelian symmetry species          All |    1    2    3    4    5    6    7    8
@                                          |  Ag   B3u  B2u  B1g  B1u  B2g  B3g  Au 
                                       --- |  ---  ---  ---  ---  ---  ---  ---  ---
@    Total number of orbitals          159 |   39   22   22   16   22   16   16    6
@    Number of basis functions         159 |   39   22   22   16   22   16   16    6

      ** Automatic occupation of RHF orbitals **

      -- Initial occupation of symmetries is determined from extended Huckel guess.           
      -- Initial occupation of symmetries is :
@    Occupied SCF orbitals               9 |    3    2    2    0    2    0    0    0

     Maximum number of Fock   iterations      0
     Maximum number of DIIS   iterations     60
     Maximum number of QC-SCF iterations     60
     Threshold for SCF convergence     1.00D-05


 ***********************************************
 ***** DIIS acceleration of SCF iterations *****
 ***********************************************

 C1-DIIS algorithm; max error vectors =    8

 Automatic occupation of symmetries with  18 electrons.

 Iter     Total energy    Error norm  Delta(E)    SCF occupation
 -----------------------------------------------------------------------------
   1  Screening settings (-IFTHRS, JTDIIS, DIFDEN, times)   -7    1    T  1.57D-01  1.56D-01
@  1  -526.814569643       1.98D+00  -5.27D+02     3   2   2   0   2   0   0   0
      Virial theorem: -V/T =      1.999465
@    MULPOP   Ar_a   -0.00; 
   1  Level shift: doubly occupied orbital energies shifted by -2.00D-01
 -----------------------------------------------------------------------------
   2  Screening settings (-IFTHRS, JTDIIS, DIFDEN, times)   -7    2    T  1.38D-01  1.38D-01
@  2  -526.816784194       2.71D-02  -2.21D-03     3   2   2   0   2   0   0   0
      Virial theorem: -V/T =      2.000088
@    MULPOP   Ar_a   -0.00; 
   2  Level shift: doubly occupied orbital energies shifted by -5.00D-02
 -----------------------------------------------------------------------------
   3  Screening settings (-IFTHRS, JTDIIS, DIFDEN, times)  -11    3    F  1.37D-01  1.37D-01
@  3  -526.816809697       6.25D-03  -2.55D-05     3   2   2   0   2   0   0   0
      Virial theorem: -V/T =      1.999972
@    MULPOP   Ar_a    0.00; 
   3  Level shift: doubly occupied orbital energies shifted by -1.25D-02
 -----------------------------------------------------------------------------
   4  Screening settings (-IFTHRS, JTDIIS, DIFDEN, times)  -11    4    T  1.41D-01  1.41D-01
@  4  -526.816810763       1.12D-03  -1.07D-06     3   2   2   0   2   0   0   0
      Virial theorem: -V/T =      2.000004
@    MULPOP   Ar_a   -0.00; 
 -----------------------------------------------------------------------------
   5  Screening settings (-IFTHRS, JTDIIS, DIFDEN, times)  -11    5    T  1.41D-01  1.41D-01
@  5  -526.816810822       7.86D-05  -5.87D-08     3   2   2   0   2   0   0   0
      Virial theorem: -V/T =      2.000000
@    MULPOP   Ar_a    0.00; 
 -----------------------------------------------------------------------------
   6  Screening settings (-IFTHRS, JTDIIS, DIFDEN, times)  -11    6    T  1.38D-01  1.37D-01
@  6  -526.816810822       1.02D-05  -6.42D-10     3   2   2   0   2   0   0   0
      Virial theorem: -V/T =      2.000000
@    MULPOP   Ar_a   -0.00; 
 -----------------------------------------------------------------------------
   7  Screening settings (-IFTHRS, JTDIIS, DIFDEN, times)  -11    7    T  1.38D-01  1.38D-01
@  7  -526.816810822       2.08D-06  -1.05D-11     3   2   2   0   2   0   0   0

@ *** DIIS converged in   7 iterations !
@     Converged SCF energy, gradient:   -526.816810822433    2.08D-06
    - total time used in SIRFCK :              0.00 seconds


 *** SCF orbital energy analysis ***

 Only the 20 lowest virtual orbital energies printed in each symmetry.

 Number of electrons :   18
 Orbital occupations :    3    2    2    0    2    0    0    0

 Sym       Hartree-Fock orbital energies

1 Ag   -118.61040575   -12.32224238    -1.27741571     0.03485826     0.13448804
          0.13448804     0.20248876     0.38822900     0.38822900     0.83389362
          0.83389362     0.84164483     1.04021109     1.04021109     1.04021109
          1.99892059     1.99892059     2.68316111     2.68316111     2.68316111
          3.08803367     4.90869517     4.90869517

2 B3u    -9.57152388    -0.59106038     0.03504824     0.15495593     0.57539019
          0.58309199     0.58309199     1.44526846     1.44526846     1.98556622
          2.95551852     2.95551852     6.05664588     6.05664588     6.37346158
         20.06685135    24.84046189    24.84046189    58.54277035    86.82811378
         86.82811378   189.15241573

3 B2u    -9.57152388    -0.59106038     0.03504824     0.15495593     0.57539019
          0.58309199     0.58309199     1.44526846     1.44526846     1.98556622
          2.95551852     2.95551852     6.05664588     6.05664588     6.37346158
         20.06685135    24.84046189    24.84046189    58.54277035    86.82811378
         86.82811378   189.15241573

4 B1g     0.13448804     0.38822900     0.83389362     1.04021109     1.04021109
          1.99892059     2.68316111     2.68316111     4.90869517     5.96354901
          5.96354901    14.22570178    44.17984885    75.98462921    75.98462921
        129.04835797

5 B1u    -9.57152388    -0.59106038     0.03504824     0.15495593     0.57539019
          0.58309199     0.58309199     1.44526846     1.44526846     1.98556622
          2.95551852     2.95551852     6.05664588     6.05664588     6.37346158
         20.06685135    24.84046189    24.84046189    58.54277035    86.82811378
         86.82811378   189.15241573

6 B2g     0.13448804     0.38822900     0.83389362     1.04021109     1.04021109
          1.99892059     2.68316111     2.68316111     4.90869517     5.96354901
          5.96354901    14.22570178    44.17984885    75.98462921    75.98462921
        129.04835797

7 B3g     0.13448804     0.38822900     0.83389362     1.04021109     1.04021109
          1.99892059     2.68316111     2.68316111     4.90869517     5.96354901
          5.96354901    14.22570178    44.17984885    75.98462921    75.98462921
        129.04835797

8 Au      0.58309199     1.44526846     2.95551852     6.05664588    24.84046189
         86.82811378

    E(LUMO) :     0.03485826 au (symmetry 1)
  - E(HOMO) :    -0.59106038 au (symmetry 2)
  ------------------------------------------
    gap     :     0.62591864 au

 --- Writing SIRIFC interface file

 CPU and wall time for SCF :       1.001       1.005


                       .-----------------------------------.
                       | --- Final results from SIRIUS --- |
                       `-----------------------------------'


@    Spin multiplicity:           1
@    Spatial symmetry:            1 ( irrep  Ag  in D2h )
@    Total charge of molecule:    0

@    Final HF energy:            -526.816810822433                 
@    Nuclear repulsion:             0.000000000000
@    Electronic energy:          -526.816810822433

@    Final gradient norm:           0.000002081508

 
     Date and time (Linux)  : Wed Jan 11 15:39:04 2023
     Host name              : cn037                                   

File label for MO orbitals:  11Jan23   FOCKDIIS

 (Only coefficients > 0.0100 are printed.)

 Molecular orbitals for symmetry species 1  (Ag )
 ------------------------------------------------

    Orbital         1        2        3        4        5        6        7
   1 Ar_a:1s     1.0001  -0.0000   0.0002  -0.0032  -0.0000  -0.0000  -0.0136
   2 Ar_a:1s     0.0000   1.0004   0.0014  -0.0422  -0.0000  -0.0000  -0.2087
   3 Ar_a:1s    -0.0003   0.0016  -0.9974  -0.0017  -0.0000  -0.0000  -0.7993
   4 Ar_a:1s    -0.0001   0.0004   0.0000  -0.0288   0.0000   0.0000  -0.1565
   5 Ar_a:1s     0.0004  -0.0025  -0.0033   0.2509   0.0000   0.0000   1.0264
   6 Ar_a:1s    -0.0001   0.0011   0.0007  -0.2594   0.0000   0.0000  -1.7157
   7 Ar_a:1s    -0.0000  -0.0000   0.0002  -0.0032  -0.0000  -0.0000  -0.0133
   8 Ar_a:1s     0.0001  -0.0001  -0.0003   0.0097   0.0000   0.0000   0.0402
   9 Ar_a:1s    -0.0002   0.0004   0.0002  -0.0187   0.0000   0.0000  -0.0786
  10 Ar_a:1s     0.0001  -0.0011   0.0004   0.9290  -0.0000   0.0000   3.2952
  11 Ar_a:1s    -0.0000   0.0003  -0.0018  -1.5872   0.0000  -0.0000  -1.5403
  18 Ar_a:3d0    0.0000   0.0000  -0.0000   0.0000  -0.0000  -0.0187  -0.0000
  19 Ar_a:3d2+  -0.0000  -0.0000  -0.0000   0.0000  -0.0187  -0.0000  -0.0000
  20 Ar_a:3d0   -0.0000  -0.0000   0.0000  -0.0000   0.0000   0.0198   0.0000
  21 Ar_a:3d2+   0.0000   0.0000   0.0000  -0.0000   0.0198   0.0000   0.0000
  22 Ar_a:3d0    0.0000   0.0000  -0.0000   0.0000  -0.0000  -0.1272  -0.0000
  23 Ar_a:3d2+  -0.0000  -0.0000  -0.0000   0.0000  -0.1272  -0.0000  -0.0000
  24 Ar_a:3d0   -0.0000  -0.0000   0.0000   0.0000   0.0000   0.2990  -0.0000
  25 Ar_a:3d2+   0.0000   0.0000   0.0000   0.0000   0.2990  -0.0000   0.0000
  26 Ar_a:3d0    0.0000   0.0000  -0.0000  -0.0000  -0.0000  -1.1574   0.0000
  27 Ar_a:3d2+  -0.0000  -0.0000  -0.0000  -0.0000  -1.1574   0.0000  -0.0000

    Orbital         8        9       10       11       12       13
   1 Ar_a:1s     0.0000  -0.0000   0.0000   0.0000  -0.0542  -0.0000
   2 Ar_a:1s     0.0000  -0.0000   0.0000   0.0000  -0.7572  -0.0000
   3 Ar_a:1s     0.0000  -0.0000   0.0000   0.0000  -1.2715  -0.0000
   4 Ar_a:1s    -0.0000   0.0000  -0.0000  -0.0000  -0.6486   0.0000
   5 Ar_a:1s    -0.0000   0.0000  -0.0000  -0.0000   4.9785   0.0000
   6 Ar_a:1s    -0.0000   0.0000  -0.0000  -0.0000  -4.8115   0.0000
   7 Ar_a:1s     0.0000  -0.0000   0.0000   0.0000  -0.0541  -0.0000
   8 Ar_a:1s    -0.0000   0.0000  -0.0000  -0.0000   0.1637   0.0000
   9 Ar_a:1s    -0.0000   0.0000  -0.0000  -0.0000  -0.3225  -0.0000
  10 Ar_a:1s    -0.0000   0.0000  -0.0000  -0.0000   2.9342   0.0000
  11 Ar_a:1s    -0.0000  -0.0000   0.0000   0.0000  -0.8723  -0.0000
  14 Ar_a:3d0    0.0000  -0.0006   0.0000   0.0105   0.0000  -0.0000
  15 Ar_a:3d2+   0.0006  -0.0000   0.0105   0.0000  -0.0000   0.0000
  16 Ar_a:3d0   -0.0000  -0.0226  -0.0000   0.0341   0.0000  -0.0000
  17 Ar_a:3d2+   0.0226  -0.0000   0.0341  -0.0000  -0.0000   0.0000
  18 Ar_a:3d0    0.0000  -0.0364   0.0000   0.2225   0.0000  -0.0000
  19 Ar_a:3d2+   0.0364  -0.0000   0.2225   0.0000  -0.0000   0.0000
  20 Ar_a:3d0   -0.0000  -0.1933  -0.0000   0.0329   0.0000   0.0000
  21 Ar_a:3d2+   0.1933   0.0000   0.0329  -0.0000   0.0000   0.0000
  22 Ar_a:3d0    0.0000   0.0964   0.0000   1.2428   0.0000  -0.0000
  23 Ar_a:3d2+  -0.0964  -0.0000   1.2428   0.0000  -0.0000  -0.0000
  24 Ar_a:3d0   -0.0000  -1.3140  -0.0000  -1.3238  -0.0000   0.0000
  25 Ar_a:3d2+   1.3140   0.0000  -1.3238  -0.0000  -0.0000   0.0000
  26 Ar_a:3d0    0.0000   0.7322   0.0000   0.4965   0.0000  -0.0000
  27 Ar_a:3d2+  -0.7322   0.0000   0.4965  -0.0000   0.0000   0.0000
  33 Ar_a:5g4+  -0.0000   0.0000  -0.0000  -0.0000   0.0000  -0.0914
  36 Ar_a:5g4+   0.0000  -0.0000   0.0000   0.0000  -0.0000   0.3616
  39 Ar_a:5g4+  -0.0000   0.0000  -0.0000  -0.0000   0.0000  -1.1957

 Molecular orbitals for symmetry species 2  (B3u)
 ------------------------------------------------

    Orbital         1        2        3        4        5        6        7
   1 Ar_a:2px    1.0000   0.0006  -0.0249  -0.0890  -0.4427  -0.0000   0.0000
   2 Ar_a:2px    0.0002   1.0021  -0.1430  -0.0946  -2.0797  -0.0000   0.0000
   3 Ar_a:2px   -0.0001  -0.0015   0.0537   0.2137   0.9601   0.0000  -0.0000
   4 Ar_a:2px    0.0000   0.0004  -0.0101  -0.0449  -0.3975   0.0000  -0.0000
   5 Ar_a:2px   -0.0002  -0.0031   0.1362   0.7529   2.9652   0.0000  -0.0000
   7 Ar_a:2px   -0.0000   0.0000  -0.0017  -0.0067  -0.0290  -0.0000   0.0000
   8 Ar_a:2px    0.0000   0.0001   0.0017   0.0071   0.0280  -0.0000   0.0000
   9 Ar_a:2px    0.0001   0.0021  -0.4399  -1.9709  -1.5438   0.0000  -0.0000
  10 Ar_a:2px   -0.0000   0.0017   1.2570   0.9691   0.5013  -0.0000   0.0000
  15 Ar_a:4f1+   0.0000  -0.0000   0.0000  -0.0000   0.0000  -0.0000   0.0472
  16 Ar_a:4f3+  -0.0000   0.0000  -0.0000   0.0000  -0.0000   0.0472   0.0000
  17 Ar_a:4f1+  -0.0000   0.0000  -0.0000   0.0000  -0.0000   0.0000  -0.3362
  18 Ar_a:4f3+   0.0000  -0.0000   0.0000  -0.0000   0.0000  -0.3362  -0.0000
  19 Ar_a:4f1+   0.0000  -0.0000   0.0000  -0.0000   0.0000  -0.0000   0.9162
  20 Ar_a:4f3+  -0.0000   0.0000  -0.0000   0.0000  -0.0000   0.9162   0.0000
  21 Ar_a:4f1+  -0.0000   0.0000  -0.0000   0.0000  -0.0000   0.0000  -1.5449
  22 Ar_a:4f3+   0.0000  -0.0000   0.0000  -0.0000   0.0000  -1.5449  -0.0000

    Orbital         8        9       10       11       12
   1 Ar_a:2px   -0.0000   0.0000  -1.5499   0.0000  -0.0000
   2 Ar_a:2px   -0.0000   0.0000  -4.2000   0.0000  -0.0000
   3 Ar_a:2px    0.0000  -0.0000   4.1492  -0.0000   0.0000
   4 Ar_a:2px    0.0000  -0.0000  -1.0143  -0.0000   0.0000
   5 Ar_a:2px    0.0000  -0.0000   2.7094  -0.0000   0.0000
   6 Ar_a:2px   -0.0000   0.0000   0.0114   0.0000  -0.0000
   7 Ar_a:2px    0.0000  -0.0000  -0.1120   0.0000  -0.0000
   8 Ar_a:2px   -0.0000   0.0000   0.1130   0.0000  -0.0000
   9 Ar_a:2px   -0.0000   0.0000  -0.7773   0.0000  -0.0000
  10 Ar_a:2px    0.0000  -0.0000   0.2394  -0.0000   0.0000
  13 Ar_a:4f1+  -0.0000  -0.0011   0.0000   0.0000   0.0163
  14 Ar_a:4f3+  -0.0011  -0.0000  -0.0000   0.0163   0.0000
  15 Ar_a:4f1+   0.0000   0.1482  -0.0000  -0.0000  -0.0943
  16 Ar_a:4f3+   0.1482   0.0000   0.0000  -0.0943  -0.0000
  17 Ar_a:4f1+   0.0000  -0.6586   0.0000   0.0000   2.2355
  18 Ar_a:4f3+  -0.6586  -0.0000  -0.0000   2.2355   0.0000
  19 Ar_a:4f1+  -0.0000   2.3470  -0.0000  -0.0000  -2.4611
  20 Ar_a:4f3+   2.3470   0.0000   0.0000  -2.4611  -0.0000
  21 Ar_a:4f1+   0.0000  -1.3092   0.0000   0.0000   0.9493
  22 Ar_a:4f3+  -1.3092  -0.0000  -0.0000   0.9493   0.0000

 Molecular orbitals for symmetry species 3  (B2u)
 ------------------------------------------------

    Orbital         1        2        3        4        5        6        7
   1 Ar_a:2py    1.0000   0.0006  -0.0249  -0.0890  -0.4427  -0.0000  -0.0000
   2 Ar_a:2py    0.0002   1.0021  -0.1430  -0.0946  -2.0797  -0.0000  -0.0000
   3 Ar_a:2py   -0.0001  -0.0015   0.0537   0.2137   0.9601   0.0000   0.0000
   4 Ar_a:2py    0.0000   0.0004  -0.0101  -0.0449  -0.3975   0.0000   0.0000
   5 Ar_a:2py   -0.0002  -0.0031   0.1362   0.7529   2.9652   0.0000   0.0000
   7 Ar_a:2py   -0.0000   0.0000  -0.0017  -0.0067  -0.0290  -0.0000  -0.0000
   8 Ar_a:2py    0.0000   0.0001   0.0017   0.0071   0.0280  -0.0000  -0.0000
   9 Ar_a:2py    0.0001   0.0021  -0.4399  -1.9709  -1.5438   0.0000  -0.0000
  10 Ar_a:2py   -0.0000   0.0017   1.2570   0.9691   0.5013  -0.0000   0.0000
  15 Ar_a:4f3-   0.0000  -0.0000   0.0000  -0.0000   0.0000  -0.0472   0.0000
  16 Ar_a:4f1-  -0.0000  -0.0000   0.0000  -0.0000   0.0000   0.0000  -0.0472
  17 Ar_a:4f3-  -0.0000   0.0000  -0.0000   0.0000  -0.0000   0.3362   0.0000
  18 Ar_a:4f1-  -0.0000   0.0000  -0.0000   0.0000  -0.0000   0.0000   0.3362
  19 Ar_a:4f3-   0.0000  -0.0000   0.0000  -0.0000   0.0000  -0.9162  -0.0000
  20 Ar_a:4f1-   0.0000  -0.0000   0.0000  -0.0000   0.0000   0.0000  -0.9162
  21 Ar_a:4f3-  -0.0000   0.0000  -0.0000   0.0000  -0.0000   1.5449   0.0000
  22 Ar_a:4f1-  -0.0000   0.0000  -0.0000   0.0000  -0.0000  -0.0000   1.5449

    Orbital         8        9       10       11       12
   1 Ar_a:2py    0.0000   0.0000  -1.5499  -0.0000  -0.0000
   2 Ar_a:2py    0.0000   0.0000  -4.2000  -0.0000  -0.0000
   3 Ar_a:2py   -0.0000  -0.0000   4.1492   0.0000   0.0000
   4 Ar_a:2py   -0.0000  -0.0000  -1.0143   0.0000   0.0000
   5 Ar_a:2py   -0.0000  -0.0000   2.7094   0.0000   0.0000
   6 Ar_a:2py    0.0000   0.0000   0.0114  -0.0000  -0.0000
   7 Ar_a:2py   -0.0000   0.0000  -0.1120  -0.0000  -0.0000
   8 Ar_a:2py    0.0000   0.0000   0.1130  -0.0000  -0.0000
   9 Ar_a:2py    0.0000   0.0000  -0.7773  -0.0000  -0.0000
  10 Ar_a:2py   -0.0000  -0.0000   0.2394   0.0000   0.0000
  13 Ar_a:4f3-  -0.0011   0.0000   0.0000   0.0163  -0.0000
  14 Ar_a:4f1-   0.0000  -0.0011   0.0000  -0.0000   0.0163
  15 Ar_a:4f3-   0.1482  -0.0000  -0.0000  -0.0943   0.0000
  16 Ar_a:4f1-  -0.0000   0.1482  -0.0000   0.0000  -0.0943
  17 Ar_a:4f3-  -0.6586   0.0000   0.0000   2.2355  -0.0000
  18 Ar_a:4f1-   0.0000  -0.6586   0.0000  -0.0000   2.2355
  19 Ar_a:4f3-   2.3470  -0.0000  -0.0000  -2.4611   0.0000
  20 Ar_a:4f1-  -0.0000   2.3470  -0.0000   0.0000  -2.4611
  21 Ar_a:4f3-  -1.3092   0.0000   0.0000   0.9493  -0.0000
  22 Ar_a:4f1-   0.0000  -1.3092   0.0000  -0.0000   0.9493

 Molecular orbitals for symmetry species 4  (B1g)
 ------------------------------------------------

    Orbital         1        2        3        4        5        6        7
   2 Ar_a:3d2-  -0.0011   0.0006   0.0105  -0.0000  -0.0000  -0.0010  -0.0000
   3 Ar_a:3d2-  -0.0004   0.0226   0.0341  -0.0000  -0.0000   0.1296  -0.0000
   4 Ar_a:3d2-  -0.0187   0.0364   0.2225  -0.0000  -0.0000   0.1290  -0.0000
   5 Ar_a:3d2-   0.0198   0.1933   0.0329   0.0000   0.0000   1.3149  -0.0000
   6 Ar_a:3d2-  -0.1272  -0.0964   1.2428  -0.0000  -0.0000  -1.7878   0.0000
   7 Ar_a:3d2-   0.2990   1.3140  -1.3238   0.0000   0.0000   0.9413   0.0000
   8 Ar_a:3d2-  -1.1574  -0.7322   0.4965  -0.0000  -0.0000  -0.3052  -0.0000
  11 Ar_a:5g4-  -0.0000   0.0000   0.0000   0.0914  -0.0000   0.0000   0.2301
  12 Ar_a:5g2-  -0.0000   0.0000   0.0000   0.0000   0.0914   0.0000   0.0000
  13 Ar_a:5g4-   0.0000  -0.0000  -0.0000  -0.3616   0.0000  -0.0000  -1.4969
  14 Ar_a:5g2-   0.0000  -0.0000  -0.0000  -0.0000  -0.3616  -0.0000  -0.0000
  15 Ar_a:5g4-  -0.0000   0.0000   0.0000   1.1957  -0.0000   0.0000   0.7251
  16 Ar_a:5g2-  -0.0000   0.0000   0.0000   0.0000   1.1957   0.0000   0.0000

    Orbital         8        9       10
   2 Ar_a:3d2-   0.0000   0.0623  -0.0000
   3 Ar_a:3d2-   0.0000   0.0976  -0.0000
   4 Ar_a:3d2-   0.0000   1.4638  -0.0000
   5 Ar_a:3d2-  -0.0000  -2.0575   0.0000
   6 Ar_a:3d2-   0.0000   1.2739  -0.0000
   7 Ar_a:3d2-  -0.0000  -0.5356  -0.0000
   8 Ar_a:3d2-   0.0000   0.1707   0.0000
  11 Ar_a:5g4-   0.0000   0.0000   1.4316
  12 Ar_a:5g2-  -0.2301   0.0000  -0.0000
  13 Ar_a:5g4-  -0.0000  -0.0000  -1.0990
  14 Ar_a:5g2-   1.4969  -0.0000   0.0000
  15 Ar_a:5g4-   0.0000   0.0000   0.3941
  16 Ar_a:5g2-  -0.7251   0.0000  -0.0000

 Molecular orbitals for symmetry species 5  (B1u)
 ------------------------------------------------

    Orbital         1        2        3        4        5        6        7
   1 Ar_a:2pz    1.0000   0.0006  -0.0249  -0.0890  -0.4427   0.0000   0.0000
   2 Ar_a:2pz    0.0002   1.0021  -0.1430  -0.0946  -2.0797   0.0000   0.0000
   3 Ar_a:2pz   -0.0001  -0.0015   0.0537   0.2137   0.9601  -0.0000  -0.0000
   4 Ar_a:2pz    0.0000   0.0004  -0.0101  -0.0449  -0.3975  -0.0000  -0.0000
   5 Ar_a:2pz   -0.0002  -0.0031   0.1362   0.7529   2.9652  -0.0000  -0.0000
   7 Ar_a:2pz   -0.0000   0.0000  -0.0017  -0.0067  -0.0290   0.0000   0.0000
   8 Ar_a:2pz    0.0000   0.0001   0.0017   0.0071   0.0280   0.0000   0.0000
   9 Ar_a:2pz    0.0001   0.0021  -0.4399  -1.9709  -1.5438   0.0000   0.0000
  10 Ar_a:2pz   -0.0000   0.0017   1.2570   0.9691   0.5013  -0.0000   0.0000
  15 Ar_a:4f0   -0.0000   0.0000  -0.0000   0.0000  -0.0000   0.0000  -0.0472
  16 Ar_a:4f2+   0.0000  -0.0000  -0.0000   0.0000   0.0000  -0.0472  -0.0000
  17 Ar_a:4f0    0.0000  -0.0000   0.0000  -0.0000   0.0000  -0.0000   0.3362
  18 Ar_a:4f2+  -0.0000   0.0000   0.0000  -0.0000  -0.0000   0.3362  -0.0000
  19 Ar_a:4f0   -0.0000   0.0000  -0.0000   0.0000  -0.0000   0.0000  -0.9162
  20 Ar_a:4f2+   0.0000   0.0000  -0.0000   0.0000  -0.0000  -0.9162   0.0000
  21 Ar_a:4f0    0.0000  -0.0000   0.0000  -0.0000   0.0000  -0.0000   1.5449
  22 Ar_a:4f2+  -0.0000  -0.0000   0.0000  -0.0000   0.0000   1.5449  -0.0000

    Orbital         8        9       10       11       12
   1 Ar_a:2pz   -0.0000  -0.0000  -1.5499   0.0000  -0.0000
   2 Ar_a:2pz   -0.0000  -0.0000  -4.2000   0.0000  -0.0000
   3 Ar_a:2pz    0.0000   0.0000   4.1492  -0.0000   0.0000
   4 Ar_a:2pz    0.0000   0.0000  -1.0143  -0.0000   0.0000
   5 Ar_a:2pz    0.0000   0.0000   2.7094  -0.0000   0.0000
   6 Ar_a:2pz   -0.0000  -0.0000   0.0114   0.0000  -0.0000
   7 Ar_a:2pz    0.0000  -0.0000  -0.1120   0.0000  -0.0000
   8 Ar_a:2pz   -0.0000  -0.0000   0.1130   0.0000  -0.0000
   9 Ar_a:2pz   -0.0000   0.0000  -0.7773   0.0000  -0.0000
  10 Ar_a:2pz    0.0000  -0.0000   0.2394  -0.0000  -0.0000
  13 Ar_a:4f0   -0.0011   0.0000  -0.0000   0.0163   0.0000
  14 Ar_a:4f2+  -0.0000  -0.0011   0.0000   0.0000   0.0163
  15 Ar_a:4f0    0.1482  -0.0000   0.0000  -0.0943  -0.0000
  16 Ar_a:4f2+  -0.0000   0.1482  -0.0000  -0.0000  -0.0943
  17 Ar_a:4f0   -0.6586   0.0000  -0.0000   2.2355   0.0000
  18 Ar_a:4f2+   0.0000  -0.6586   0.0000   0.0000   2.2355
  19 Ar_a:4f0    2.3470  -0.0000   0.0000  -2.4611  -0.0000
  20 Ar_a:4f2+  -0.0000   2.3470   0.0000   0.0000  -2.4611
  21 Ar_a:4f0   -1.3092   0.0000  -0.0000   0.9493   0.0000
  22 Ar_a:4f2+   0.0000  -1.3092  -0.0000  -0.0000   0.9493

 Molecular orbitals for symmetry species 6  (B2g)
 ------------------------------------------------

    Orbital         1        2        3        4        5        6        7
   2 Ar_a:3d1+  -0.0011   0.0006   0.0105   0.0000   0.0000  -0.0010  -0.0000
   3 Ar_a:3d1+  -0.0004   0.0226   0.0341   0.0000   0.0000   0.1296  -0.0000
   4 Ar_a:3d1+  -0.0187   0.0364   0.2225   0.0000  -0.0000   0.1290  -0.0000
   5 Ar_a:3d1+   0.0198   0.1933   0.0329  -0.0000   0.0000   1.3149   0.0000
   6 Ar_a:3d1+  -0.1272  -0.0964   1.2428   0.0000  -0.0000  -1.7878  -0.0000
   7 Ar_a:3d1+   0.2990   1.3140  -1.3238  -0.0000  -0.0000   0.9413   0.0000
   8 Ar_a:3d1+  -1.1574  -0.7322   0.4965   0.0000   0.0000  -0.3052  -0.0000
  11 Ar_a:5g1+   0.0000  -0.0000  -0.0000   0.0914  -0.0000  -0.0000  -0.2301
  12 Ar_a:5g3+  -0.0000   0.0000   0.0000  -0.0000   0.0914   0.0000  -0.0000
  13 Ar_a:5g1+  -0.0000   0.0000   0.0000  -0.3616   0.0000   0.0000   1.4969
  14 Ar_a:5g3+  -0.0000  -0.0000  -0.0000  -0.0000  -0.3616  -0.0000   0.0000
  15 Ar_a:5g1+   0.0000  -0.0000  -0.0000   1.1957  -0.0000  -0.0000  -0.7251
  16 Ar_a:5g3+   0.0000  -0.0000  -0.0000   0.0000   1.1957  -0.0000   0.0000

    Orbital         8        9       10
   2 Ar_a:3d1+  -0.0000   0.0623   0.0000
   3 Ar_a:3d1+  -0.0000   0.0976   0.0000
   4 Ar_a:3d1+  -0.0000   1.4638   0.0000
   5 Ar_a:3d1+   0.0000  -2.0575  -0.0000
   6 Ar_a:3d1+  -0.0000   1.2739   0.0000
   7 Ar_a:3d1+  -0.0000  -0.5356  -0.0000
   8 Ar_a:3d1+   0.0000   0.1707   0.0000
  11 Ar_a:5g1+   0.0000  -0.0000   1.4316
  12 Ar_a:5g3+  -0.2301   0.0000  -0.0000
  13 Ar_a:5g1+  -0.0000   0.0000  -1.0990
  14 Ar_a:5g3+   1.4969  -0.0000   0.0000
  15 Ar_a:5g1+   0.0000  -0.0000   0.3941
  16 Ar_a:5g3+  -0.7251  -0.0000   0.0000

 Molecular orbitals for symmetry species 7  (B3g)
 ------------------------------------------------

    Orbital         1        2        3        4        5        6        7
   2 Ar_a:3d1-  -0.0011   0.0006   0.0105  -0.0000  -0.0000   0.0010  -0.0000
   3 Ar_a:3d1-  -0.0004   0.0226   0.0341  -0.0000  -0.0000  -0.1296  -0.0000
   4 Ar_a:3d1-  -0.0187   0.0364   0.2225  -0.0000   0.0000  -0.1290  -0.0000
   5 Ar_a:3d1-   0.0198   0.1933   0.0329   0.0000  -0.0000  -1.3149   0.0000
   6 Ar_a:3d1-  -0.1272  -0.0964   1.2428  -0.0000   0.0000   1.7878  -0.0000
   7 Ar_a:3d1-   0.2990   1.3140  -1.3238  -0.0000   0.0000  -0.9413  -0.0000
   8 Ar_a:3d1-  -1.1574  -0.7322   0.4965   0.0000  -0.0000   0.3052   0.0000
  11 Ar_a:5g3-   0.0000  -0.0000  -0.0000   0.0000   0.0914   0.0000   0.0000
  12 Ar_a:5g1-  -0.0000   0.0000   0.0000   0.0914   0.0000  -0.0000  -0.2301
  13 Ar_a:5g3-   0.0000   0.0000   0.0000  -0.0000  -0.3616  -0.0000  -0.0000
  14 Ar_a:5g1-  -0.0000   0.0000   0.0000  -0.3616  -0.0000  -0.0000   1.4969
  15 Ar_a:5g3-  -0.0000   0.0000   0.0000  -0.0000   1.1957  -0.0000  -0.0000
  16 Ar_a:5g1-  -0.0000  -0.0000  -0.0000   1.1957   0.0000   0.0000  -0.7251

    Orbital         8        9       10
   2 Ar_a:3d1-  -0.0000   0.0623  -0.0000
   3 Ar_a:3d1-  -0.0000   0.0976  -0.0000
   4 Ar_a:3d1-  -0.0000   1.4638  -0.0000
   5 Ar_a:3d1-   0.0000  -2.0575   0.0000
   6 Ar_a:3d1-  -0.0000   1.2739  -0.0000
   7 Ar_a:3d1-  -0.0000  -0.5356  -0.0000
   8 Ar_a:3d1-   0.0000   0.1707   0.0000
  11 Ar_a:5g3-   0.2301  -0.0000   0.0000
  12 Ar_a:5g1-  -0.0000   0.0000   1.4316
  13 Ar_a:5g3-  -1.4969   0.0000  -0.0000
  14 Ar_a:5g1-  -0.0000   0.0000  -1.0990
  15 Ar_a:5g3-   0.7251   0.0000  -0.0000
  16 Ar_a:5g1-   0.0000  -0.0000   0.3941

 Molecular orbitals for symmetry species 8  (Au )
 ------------------------------------------------

    Orbital         1        2        3        4        5        6
   1 Ar_a:4f2-   0.0005   0.0007   0.0027   0.0006  -0.1044  -1.2300
   2 Ar_a:4f2-  -0.0020  -0.0011  -0.0163   0.0276   1.0931   0.6564
   3 Ar_a:4f2-   0.0472   0.1482   0.0943   1.5803  -0.4678  -0.1742
   4 Ar_a:4f2-  -0.3362  -0.6586  -2.2355  -2.1612   0.5162   0.1913
   5 Ar_a:4f2-   0.9162   2.3470   2.4611   1.6866  -0.4072  -0.1532
   6 Ar_a:4f2-  -1.5449  -1.3092  -0.9493  -0.5840   0.1485   0.0567

  Total CPU  time used in SIRIUS :   1.01 seconds
  Total wall time used in SIRIUS :   1.02 seconds

 
     Date and time (Linux)  : Wed Jan 11 15:39:04 2023
     Host name              : cn037                                   


                     .---------------------------------------.
                     | End of Wave Function Section (SIRIUS) |
                     `---------------------------------------'



                 .------------------------------------------------.
                 | Starting in Dynamic Property Section (RESPONS) |
                 `------------------------------------------------'


 ----------------------------------------------------------------------------------------
  RESPONSE  -  an MCSCF, MC-srDFT, DFT, SOPPA and SOPPA-srDFT response property program
 ----------------------------------------------------------------------------------------


 -------- OUTPUT FROM RESPONSE INPUT PROCESSING --------




 Linear Response calculation
 ---------------------------

 Print level                                    : IPRLR  =   2
 Maximum number of iterations                   : MAXITL =  60
 Threshold for relative convergence             : THCLR  = 1.000D-03
 Maximum iterations in optimal orbital algorithm: MAXITO =   5

  9 B-frequencies  0.000000D+00  3.011900D-02  6.023800D-02  9.035700D-02  1.204760D-01
  1.505950D-01  1.807140D-01  2.108330D-01  2.409520D-01

    1 second order properties calculated with symmetry no.    2 and labels:

          XDIPLEN 

    1 second order properties calculated with symmetry no.    3 and labels:

          YDIPLEN 

    1 second order properties calculated with symmetry no.    5 and labels:

          ZDIPLEN 


   SCF energy         :     -526.816810822432672
 -- inactive part     :     -526.816810822432672
 -- nuclear repulsion :        0.000000000000000


                     ***************************************
                     *** RHF response calculation (TDHF) ***
                     ***************************************

 ----------------------------------------------------------------
 ----- Linear response calculation
 ----- Symmetry of excitation/property operator(s)    2  ( B3u)
 ----------------------------------------------------------------

 Number of excitations of this symmetry            0
 Number of response properties of this symmetry    1
 Number of C6/C8 properties of this symmetry       0


 Perturbation symmetry.     KSYMOP:           2
 Perturbation spin symmetry.TRPLET:           F
 Orbital variables.         KZWOPT:         196
 Configuration variables.   KZCONF:           0
 Total number of variables. KZVAR :         196


 RSPLR -- linear response calculation for symmetry 2  ( B3u)
 RSPLR -- operator label : XDIPLEN 
 RSPLR -- operator spin  :   0
 RSPLR -- frequencies    :     0.000000  0.030119  0.060238  0.090357  0.120476
                               0.150595  0.180714  0.210833  0.240952



 ---  SOLVING SETS OF LINEAR EQUATIONS FOR LINEAR RESPONSE PROPERTIES ---

 Operator symmetry = 2  ( B3u); triplet =   F


 ** RSPCTL MICROITERATION NUMBER    1

       No.  Residual tot.,    conf., and orb.    Bnorm      Frequency 
      ----------------------------------------------------------------
         1    6.99015D-01  0.00D+00  6.99D-01  2.56D+00    0.00000D+00
         2    7.00437D-01  0.00D+00  7.00D-01  2.57D+00    3.01190D-02
         3    7.04755D-01  0.00D+00  7.05D-01  2.60D+00    6.02380D-02
         4    7.12122D-01  0.00D+00  7.12D-01  2.66D+00    9.03570D-02
         5    7.22817D-01  0.00D+00  7.23D-01  2.74D+00    1.20476D-01
         6    7.37276D-01  0.00D+00  7.37D-01  2.85D+00    1.50595D-01
         7    7.56160D-01  0.00D+00  7.56D-01  3.00D+00    1.80714D-01
         8    7.80466D-01  0.00D+00  7.80D-01  3.19D+00    2.10833D-01
         9    8.11739D-01  0.00D+00  8.12D-01  3.44D+00    2.40952D-01

 ** RSPCTL MICROITERATION NUMBER    2

       No.  Residual tot.,    conf., and orb.    Bnorm      Frequency 
      ----------------------------------------------------------------
         1    2.83521D-02  0.00D+00  2.84D-02  2.61D+00    0.00000D+00
         2    2.84341D-02  0.00D+00  2.84D-02  2.62D+00    3.01190D-02
         3    2.86831D-02  0.00D+00  2.87D-02  2.65D+00    6.02380D-02
         4    2.91094D-02  0.00D+00  2.91D-02  2.71D+00    9.03570D-02
         5    2.97311D-02  0.00D+00  2.97D-02  2.80D+00    1.20476D-01
         6    3.05771D-02  0.00D+00  3.06D-02  2.91D+00    1.50595D-01
         7    3.16916D-02  0.00D+00  3.17D-02  3.06D+00    1.80714D-01
         8    3.31417D-02  0.00D+00  3.31D-02  3.26D+00    2.10833D-01
         9    3.50332D-02  0.00D+00  3.50D-02  3.52D+00    2.40952D-01

 ** RSPCTL MICROITERATION NUMBER    3

       No.  Residual tot.,    conf., and orb.    Bnorm      Frequency 
      ----------------------------------------------------------------
         1    2.14483D-03  0.00D+00  2.14D-03  2.61D+00    0.00000D+00
         2    2.15402D-03  0.00D+00  2.15D-03  2.62D+00    3.01190D-02
         3    2.18194D-03  0.00D+00  2.18D-03  2.65D+00    6.02380D-02
         4    2.22965D-03  0.00D+00  2.23D-03  2.71D+00    9.03570D-02
         5    2.29904D-03  0.00D+00  2.30D-03  2.80D+00    1.20476D-01
         6    2.39308D-03  0.00D+00  2.39D-03  2.91D+00    1.50595D-01
         7    2.51614D-03  0.00D+00  2.52D-03  3.06D+00    1.80714D-01
         8    2.67470D-03  0.00D+00  2.67D-03  3.26D+00    2.10833D-01
         9    2.87848D-03  0.00D+00  2.88D-03  3.52D+00    2.40952D-01

 *** THE REQUESTED    9 SOLUTION VECTORS CONVERGED

 Convergence of RSP solution vectors, threshold = 1.00D-03
 ---------------------------------------------------------------
 (dimension of paired reduced space:   54)
 RSP solution vector no.    1; norm of residual   8.23D-04
 RSP solution vector no.    2; norm of residual   8.23D-04
 RSP solution vector no.    3; norm of residual   8.23D-04
 RSP solution vector no.    4; norm of residual   8.23D-04
 RSP solution vector no.    5; norm of residual   8.22D-04
 RSP solution vector no.    6; norm of residual   8.22D-04
 RSP solution vector no.    7; norm of residual   8.21D-04
 RSP solution vector no.    8; norm of residual   8.20D-04
 RSP solution vector no.    9; norm of residual   8.17D-04

 *** RSPCTL MICROITERATIONS CONVERGED


           Final output of second order properties from linear response
           ------------------------------------------------------------


@ Spin symmetry of operators: singlet

 Note that minus the linear response function: - << A; B >>(omega) is printed.
 The results are of quadratic accuracy using Sellers formula.

@ FREQUENCY INDEPENDENT SECOND ORDER PROPERTIES

@ -<< XDIPLEN  ; XDIPLEN  >> =  1.076194717771E+01

@ FREQUENCY DEPENDENT SECOND ORDER PROPERTIES WITH FREQUENCY :

@    a.u.:  3.0119000D-02
@    cm-1:  6.6103564D+03
@    eV  :  8.1957968D-01
@  kJ/mol:  7.9077422D+01
@    nm  :  1.5127777D+03

@ -<< XDIPLEN  ; XDIPLEN  >> =  1.078511349997E+01

@ FREQUENCY DEPENDENT SECOND ORDER PROPERTIES WITH FREQUENCY :

@    a.u.:  6.0238000D-02
@    cm-1:  1.3220713D+04
@    eV  :  1.6391594D+00
@  kJ/mol:  1.5815484D+02
@    nm  :  7.5638887D+02

@ -<< XDIPLEN  ; XDIPLEN  >> =  1.085541301755E+01

@ FREQUENCY DEPENDENT SECOND ORDER PROPERTIES WITH FREQUENCY :

@    a.u.:  9.0357000D-02
@    cm-1:  1.9831069D+04
@    eV  :  2.4587390D+00
@  kJ/mol:  2.3723227D+02
@    nm  :  5.0425925D+02

@ -<< XDIPLEN  ; XDIPLEN  >> =  1.097533240662E+01

@ FREQUENCY DEPENDENT SECOND ORDER PROPERTIES WITH FREQUENCY :

@    a.u.:  1.2047600D-01
@    cm-1:  2.6441425D+04
@    eV  :  3.2783187D+00
@  kJ/mol:  3.1630969D+02
@    nm  :  3.7819444D+02

@ -<< XDIPLEN  ; XDIPLEN  >> =  1.114931907427E+01

@ FREQUENCY DEPENDENT SECOND ORDER PROPERTIES WITH FREQUENCY :

@    a.u.:  1.5059500D-01
@    cm-1:  3.3051782D+04
@    eV  :  4.0978984D+00
@  kJ/mol:  3.9538711D+02
@    nm  :  3.0255555D+02

@ -<< XDIPLEN  ; XDIPLEN  >> =  1.138431201981E+01

@ FREQUENCY DEPENDENT SECOND ORDER PROPERTIES WITH FREQUENCY :

@    a.u.:  1.8071400D-01
@    cm-1:  3.9662138D+04
@    eV  :  4.9174781D+00
@  kJ/mol:  4.7446453D+02
@    nm  :  2.5212962D+02

@ -<< XDIPLEN  ; XDIPLEN  >> =  1.169067237529E+01

@ FREQUENCY DEPENDENT SECOND ORDER PROPERTIES WITH FREQUENCY :

@    a.u.:  2.1083300D-01
@    cm-1:  4.6272495D+04
@    eV  :  5.7370578D+00
@  kJ/mol:  5.5354196D+02
@    nm  :  2.1611111D+02

@ -<< XDIPLEN  ; XDIPLEN  >> =  1.208380660444E+01

@ FREQUENCY DEPENDENT SECOND ORDER PROPERTIES WITH FREQUENCY :

@    a.u.:  2.4095200D-01
@    cm-1:  5.2882851D+04
@    eV  :  6.5566374D+00
@  kJ/mol:  6.3261938D+02
@    nm  :  1.8909722D+02

@ -<< XDIPLEN  ; XDIPLEN  >> =  1.258710340976E+01


 Time used in linear response calculation is      3.14 CPU seconds for symmetry 2
 ----------------------------------------------------------------
 ----- Linear response calculation
 ----- Symmetry of excitation/property operator(s)    3  ( B2u)
 ----------------------------------------------------------------

 Number of excitations of this symmetry            0
 Number of response properties of this symmetry    1
 Number of C6/C8 properties of this symmetry       0


 Perturbation symmetry.     KSYMOP:           3
 Perturbation spin symmetry.TRPLET:           F
 Orbital variables.         KZWOPT:         196
 Configuration variables.   KZCONF:           0
 Total number of variables. KZVAR :         196


 RSPLR -- linear response calculation for symmetry 3  ( B2u)
 RSPLR -- operator label : YDIPLEN 
 RSPLR -- operator spin  :   0
 RSPLR -- frequencies    :     0.000000  0.030119  0.060238  0.090357  0.120476
                               0.150595  0.180714  0.210833  0.240952



 ---  SOLVING SETS OF LINEAR EQUATIONS FOR LINEAR RESPONSE PROPERTIES ---

 Operator symmetry = 3  ( B2u); triplet =   F


 ** RSPCTL MICROITERATION NUMBER    1

       No.  Residual tot.,    conf., and orb.    Bnorm      Frequency 
      ----------------------------------------------------------------
         1    1.03479D+00  0.00D+00  1.03D+00  2.56D+00    0.00000D+00
         2    1.03650D+00  0.00D+00  1.04D+00  2.57D+00    3.01190D-02
         3    1.04166D+00  0.00D+00  1.04D+00  2.61D+00    6.02380D-02
         4    1.05046D+00  0.00D+00  1.05D+00  2.66D+00    9.03570D-02
         5    1.06322D+00  0.00D+00  1.06D+00  2.74D+00    1.20476D-01
         6    1.08042D+00  0.00D+00  1.08D+00  2.86D+00    1.50595D-01
         7    1.10282D+00  0.00D+00  1.10D+00  3.00D+00    1.80714D-01
         8    1.13152D+00  0.00D+00  1.13D+00  3.19D+00    2.10833D-01
         9    1.16825D+00  0.00D+00  1.17D+00  3.44D+00    2.40952D-01

 ** RSPCTL MICROITERATION NUMBER    2

       No.  Residual tot.,    conf., and orb.    Bnorm      Frequency 
      ----------------------------------------------------------------
         1    8.56178D-02  0.00D+00  8.56D-02  2.61D+00    0.00000D+00
         2    8.57368D-02  0.00D+00  8.57D-02  2.62D+00    3.01190D-02
         3    8.60968D-02  0.00D+00  8.61D-02  2.65D+00    6.02380D-02
         4    8.67075D-02  0.00D+00  8.67D-02  2.71D+00    9.03570D-02
         5    8.75856D-02  0.00D+00  8.76D-02  2.80D+00    1.20476D-01
         6    8.87572D-02  0.00D+00  8.88D-02  2.91D+00    1.50595D-01
         7    9.02608D-02  0.00D+00  9.03D-02  3.06D+00    1.80714D-01
         8    9.21525D-02  0.00D+00  9.22D-02  3.26D+00    2.10833D-01
         9    9.45162D-02  0.00D+00  9.45D-02  3.52D+00    2.40952D-01

 ** RSPCTL MICROITERATION NUMBER    3

       No.  Residual tot.,    conf., and orb.    Bnorm      Frequency 
      ----------------------------------------------------------------
         1    8.17845D-03  0.00D+00  8.18D-03  2.61D+00    0.00000D+00
         2    8.20519D-03  0.00D+00  8.21D-03  2.62D+00    3.01190D-02
         3    8.28638D-03  0.00D+00  8.29D-03  2.65D+00    6.02380D-02
         4    8.42498D-03  0.00D+00  8.42D-03  2.71D+00    9.03570D-02
         5    8.62626D-03  0.00D+00  8.63D-03  2.80D+00    1.20476D-01
         6    8.89845D-03  0.00D+00  8.90D-03  2.91D+00    1.50595D-01
         7    9.25373D-03  0.00D+00  9.25D-03  3.06D+00    1.80714D-01
         8    9.71011D-03  0.00D+00  9.71D-03  3.26D+00    2.10833D-01
         9    1.02946D-02  0.00D+00  1.03D-02  3.52D+00    2.40952D-01

 ** RSPCTL MICROITERATION NUMBER    4

       No.  Residual tot.,    conf., and orb.    Bnorm      Frequency 
      ----------------------------------------------------------------
         1    3.15803D-04  0.00D+00  3.16D-04  2.61D+00    0.00000D+00
         2    3.16734D-04  0.00D+00  3.17D-04  2.62D+00    3.01190D-02
         3    3.19553D-04  0.00D+00  3.20D-04  2.65D+00    6.02380D-02
         4    3.24343D-04  0.00D+00  3.24D-04  2.71D+00    9.03570D-02
         5    3.31252D-04  0.00D+00  3.31D-04  2.80D+00    1.20476D-01
         6    3.40507D-04  0.00D+00  3.41D-04  2.91D+00    1.50595D-01
         7    3.52444D-04  0.00D+00  3.52D-04  3.06D+00    1.80714D-01
         8    3.67560D-04  0.00D+00  3.68D-04  3.26D+00    2.10833D-01
         9    3.86612D-04  0.00D+00  3.87D-04  3.52D+00    2.40952D-01

 *** THE REQUESTED    9 SOLUTION VECTORS CONVERGED

 Convergence of RSP solution vectors, threshold = 1.00D-03
 ---------------------------------------------------------------
 (dimension of paired reduced space:   72)
 RSP solution vector no.    1; norm of residual   1.21D-04
 RSP solution vector no.    2; norm of residual   1.21D-04
 RSP solution vector no.    3; norm of residual   1.20D-04
 RSP solution vector no.    4; norm of residual   1.20D-04
 RSP solution vector no.    5; norm of residual   1.18D-04
 RSP solution vector no.    6; norm of residual   1.17D-04
 RSP solution vector no.    7; norm of residual   1.15D-04
 RSP solution vector no.    8; norm of residual   1.13D-04
 RSP solution vector no.    9; norm of residual   1.10D-04

 *** RSPCTL MICROITERATIONS CONVERGED


           Final output of second order properties from linear response
           ------------------------------------------------------------


@ Spin symmetry of operators: singlet

 Note that minus the linear response function: - << A; B >>(omega) is printed.
 The results are of quadratic accuracy using Sellers formula.

@ FREQUENCY INDEPENDENT SECOND ORDER PROPERTIES

@ -<< YDIPLEN  ; YDIPLEN  >> =  1.076194733986E+01

@ FREQUENCY DEPENDENT SECOND ORDER PROPERTIES WITH FREQUENCY :

@    a.u.:  3.0119000D-02
@    cm-1:  6.6103564D+03
@    eV  :  8.1957968D-01
@  kJ/mol:  7.9077422D+01
@    nm  :  1.5127777D+03

@ -<< YDIPLEN  ; YDIPLEN  >> =  1.078511366359E+01

@ FREQUENCY DEPENDENT SECOND ORDER PROPERTIES WITH FREQUENCY :

@    a.u.:  6.0238000D-02
@    cm-1:  1.3220713D+04
@    eV  :  1.6391594D+00
@  kJ/mol:  1.5815484D+02
@    nm  :  7.5638887D+02

@ -<< YDIPLEN  ; YDIPLEN  >> =  1.085541318569E+01

@ FREQUENCY DEPENDENT SECOND ORDER PROPERTIES WITH FREQUENCY :

@    a.u.:  9.0357000D-02
@    cm-1:  1.9831069D+04
@    eV  :  2.4587390D+00
@  kJ/mol:  2.3723227D+02
@    nm  :  5.0425925D+02

@ -<< YDIPLEN  ; YDIPLEN  >> =  1.097533258264E+01

@ FREQUENCY DEPENDENT SECOND ORDER PROPERTIES WITH FREQUENCY :

@    a.u.:  1.2047600D-01
@    cm-1:  2.6441425D+04
@    eV  :  3.2783187D+00
@  kJ/mol:  3.1630969D+02
@    nm  :  3.7819444D+02

@ -<< YDIPLEN  ; YDIPLEN  >> =  1.114931926207E+01

@ FREQUENCY DEPENDENT SECOND ORDER PROPERTIES WITH FREQUENCY :

@    a.u.:  1.5059500D-01
@    cm-1:  3.3051782D+04
@    eV  :  4.0978984D+00
@  kJ/mol:  3.9538711D+02
@    nm  :  3.0255555D+02

@ -<< YDIPLEN  ; YDIPLEN  >> =  1.138431222421E+01

@ FREQUENCY DEPENDENT SECOND ORDER PROPERTIES WITH FREQUENCY :

@    a.u.:  1.8071400D-01
@    cm-1:  3.9662138D+04
@    eV  :  4.9174781D+00
@  kJ/mol:  4.7446453D+02
@    nm  :  2.5212962D+02

@ -<< YDIPLEN  ; YDIPLEN  >> =  1.169067260248E+01

@ FREQUENCY DEPENDENT SECOND ORDER PROPERTIES WITH FREQUENCY :

@    a.u.:  2.1083300D-01
@    cm-1:  4.6272495D+04
@    eV  :  5.7370578D+00
@  kJ/mol:  5.5354196D+02
@    nm  :  2.1611111D+02

@ -<< YDIPLEN  ; YDIPLEN  >> =  1.208380686284E+01

@ FREQUENCY DEPENDENT SECOND ORDER PROPERTIES WITH FREQUENCY :

@    a.u.:  2.4095200D-01
@    cm-1:  5.2882851D+04
@    eV  :  6.5566374D+00
@  kJ/mol:  6.3261938D+02
@    nm  :  1.8909722D+02

@ -<< YDIPLEN  ; YDIPLEN  >> =  1.258710371129E+01


 Time used in linear response calculation is      4.18 CPU seconds for symmetry 3
 ----------------------------------------------------------------
 ----- Linear response calculation
 ----- Symmetry of excitation/property operator(s)    5  ( B1u)
 ----------------------------------------------------------------

 Number of excitations of this symmetry            0
 Number of response properties of this symmetry    1
 Number of C6/C8 properties of this symmetry       0


 Perturbation symmetry.     KSYMOP:           5
 Perturbation spin symmetry.TRPLET:           F
 Orbital variables.         KZWOPT:         196
 Configuration variables.   KZCONF:           0
 Total number of variables. KZVAR :         196


 RSPLR -- linear response calculation for symmetry 5  ( B1u)
 RSPLR -- operator label : ZDIPLEN 
 RSPLR -- operator spin  :   0
 RSPLR -- frequencies    :     0.000000  0.030119  0.060238  0.090357  0.120476
                               0.150595  0.180714  0.210833  0.240952



 ---  SOLVING SETS OF LINEAR EQUATIONS FOR LINEAR RESPONSE PROPERTIES ---

 Operator symmetry = 5  ( B1u); triplet =   F


 ** RSPCTL MICROITERATION NUMBER    1

       No.  Residual tot.,    conf., and orb.    Bnorm      Frequency 
      ----------------------------------------------------------------
         1    2.40337D+00  0.00D+00  2.40D+00  2.56D+00    0.00000D+00
         2    2.40728D+00  0.00D+00  2.41D+00  2.57D+00    3.01190D-02
         3    2.41913D+00  0.00D+00  2.42D+00  2.61D+00    6.02380D-02
         4    2.43931D+00  0.00D+00  2.44D+00  2.66D+00    9.03570D-02
         5    2.46850D+00  0.00D+00  2.47D+00  2.75D+00    1.20476D-01
         6    2.50777D+00  0.00D+00  2.51D+00  2.86D+00    1.50595D-01
         7    2.55871D+00  0.00D+00  2.56D+00  3.00D+00    1.80714D-01
         8    2.62368D+00  0.00D+00  2.62D+00  3.19D+00    2.10833D-01
         9    2.70628D+00  0.00D+00  2.71D+00  3.44D+00    2.40952D-01

 ** RSPCTL MICROITERATION NUMBER    2

       No.  Residual tot.,    conf., and orb.    Bnorm      Frequency 
      ----------------------------------------------------------------
         1    5.78163D-02  0.00D+00  5.78D-02  2.61D+00    0.00000D+00
         2    5.79633D-02  0.00D+00  5.80D-02  2.62D+00    3.01190D-02
         3    5.84109D-02  0.00D+00  5.84D-02  2.65D+00    6.02380D-02
         4    5.91805D-02  0.00D+00  5.92D-02  2.71D+00    9.03570D-02
         5    6.03104D-02  0.00D+00  6.03D-02  2.80D+00    1.20476D-01
         6    6.18617D-02  0.00D+00  6.19D-02  2.91D+00    1.50595D-01
         7    6.39283D-02  0.00D+00  6.39D-02  3.06D+00    1.80714D-01
         8    6.66548D-02  0.00D+00  6.67D-02  3.26D+00    2.10833D-01
         9    7.02698D-02  0.00D+00  7.03D-02  3.52D+00    2.40952D-01

 ** RSPCTL MICROITERATION NUMBER    3

       No.  Residual tot.,    conf., and orb.    Bnorm      Frequency 
      ----------------------------------------------------------------
         1    2.92080D-03  0.00D+00  2.92D-03  2.61D+00    0.00000D+00
         2    2.93062D-03  0.00D+00  2.93D-03  2.62D+00    3.01190D-02
         3    2.96047D-03  0.00D+00  2.96D-03  2.65D+00    6.02380D-02
         4    3.01155D-03  0.00D+00  3.01D-03  2.71D+00    9.03570D-02
         5    3.08598D-03  0.00D+00  3.09D-03  2.80D+00    1.20476D-01
         6    3.18711D-03  0.00D+00  3.19D-03  2.91D+00    1.50595D-01
         7    3.31996D-03  0.00D+00  3.32D-03  3.06D+00    1.80714D-01
         8    3.49204D-03  0.00D+00  3.49D-03  3.26D+00    2.10833D-01
         9    3.71486D-03  0.00D+00  3.71D-03  3.52D+00    2.40952D-01

 ** RSPCTL MICROITERATION NUMBER    4

       No.  Residual tot.,    conf., and orb.    Bnorm      Frequency 
      ----------------------------------------------------------------
         1    1.35307D-04  0.00D+00  1.35D-04  2.61D+00    0.00000D+00
         2    1.35954D-04  0.00D+00  1.36D-04  2.62D+00    3.01190D-02
         3    1.37916D-04  0.00D+00  1.38D-04  2.65D+00    6.02380D-02
         4    1.41260D-04  0.00D+00  1.41D-04  2.71D+00    9.03570D-02
         5    1.46102D-04  0.00D+00  1.46D-04  2.80D+00    1.20476D-01
         6    1.52621D-04  0.00D+00  1.53D-04  2.91D+00    1.50595D-01
         7    1.61076D-04  0.00D+00  1.61D-04  3.06D+00    1.80714D-01
         8    1.71845D-04  0.00D+00  1.72D-04  3.26D+00    2.10833D-01
         9    1.85485D-04  0.00D+00  1.85D-04  3.52D+00    2.40952D-01

 *** THE REQUESTED    9 SOLUTION VECTORS CONVERGED

 Convergence of RSP solution vectors, threshold = 1.00D-03
 ---------------------------------------------------------------
 (dimension of paired reduced space:   72)
 RSP solution vector no.    1; norm of residual   5.19D-05
 RSP solution vector no.    2; norm of residual   5.19D-05
 RSP solution vector no.    3; norm of residual   5.20D-05
 RSP solution vector no.    4; norm of residual   5.21D-05
 RSP solution vector no.    5; norm of residual   5.23D-05
 RSP solution vector no.    6; norm of residual   5.24D-05
 RSP solution vector no.    7; norm of residual   5.26D-05
 RSP solution vector no.    8; norm of residual   5.27D-05
 RSP solution vector no.    9; norm of residual   5.27D-05

 *** RSPCTL MICROITERATIONS CONVERGED


           Final output of second order properties from linear response
           ------------------------------------------------------------


@ Spin symmetry of operators: singlet

 Note that minus the linear response function: - << A; B >>(omega) is printed.
 The results are of quadratic accuracy using Sellers formula.

@ FREQUENCY INDEPENDENT SECOND ORDER PROPERTIES

@ -<< ZDIPLEN  ; ZDIPLEN  >> =  1.076194734085E+01

@ FREQUENCY DEPENDENT SECOND ORDER PROPERTIES WITH FREQUENCY :

@    a.u.:  3.0119000D-02
@    cm-1:  6.6103564D+03
@    eV  :  8.1957968D-01
@  kJ/mol:  7.9077422D+01
@    nm  :  1.5127777D+03

@ -<< ZDIPLEN  ; ZDIPLEN  >> =  1.078511366459E+01

@ FREQUENCY DEPENDENT SECOND ORDER PROPERTIES WITH FREQUENCY :

@    a.u.:  6.0238000D-02
@    cm-1:  1.3220713D+04
@    eV  :  1.6391594D+00
@  kJ/mol:  1.5815484D+02
@    nm  :  7.5638887D+02

@ -<< ZDIPLEN  ; ZDIPLEN  >> =  1.085541318670E+01

@ FREQUENCY DEPENDENT SECOND ORDER PROPERTIES WITH FREQUENCY :

@    a.u.:  9.0357000D-02
@    cm-1:  1.9831069D+04
@    eV  :  2.4587390D+00
@  kJ/mol:  2.3723227D+02
@    nm  :  5.0425925D+02

@ -<< ZDIPLEN  ; ZDIPLEN  >> =  1.097533258367E+01

@ FREQUENCY DEPENDENT SECOND ORDER PROPERTIES WITH FREQUENCY :

@    a.u.:  1.2047600D-01
@    cm-1:  2.6441425D+04
@    eV  :  3.2783187D+00
@  kJ/mol:  3.1630969D+02
@    nm  :  3.7819444D+02

@ -<< ZDIPLEN  ; ZDIPLEN  >> =  1.114931926314E+01

@ FREQUENCY DEPENDENT SECOND ORDER PROPERTIES WITH FREQUENCY :

@    a.u.:  1.5059500D-01
@    cm-1:  3.3051782D+04
@    eV  :  4.0978984D+00
@  kJ/mol:  3.9538711D+02
@    nm  :  3.0255555D+02

@ -<< ZDIPLEN  ; ZDIPLEN  >> =  1.138431222532E+01

@ FREQUENCY DEPENDENT SECOND ORDER PROPERTIES WITH FREQUENCY :

@    a.u.:  1.8071400D-01
@    cm-1:  3.9662138D+04
@    eV  :  4.9174781D+00
@  kJ/mol:  4.7446453D+02
@    nm  :  2.5212962D+02

@ -<< ZDIPLEN  ; ZDIPLEN  >> =  1.169067260366E+01

@ FREQUENCY DEPENDENT SECOND ORDER PROPERTIES WITH FREQUENCY :

@    a.u.:  2.1083300D-01
@    cm-1:  4.6272495D+04
@    eV  :  5.7370578D+00
@  kJ/mol:  5.5354196D+02
@    nm  :  2.1611111D+02

@ -<< ZDIPLEN  ; ZDIPLEN  >> =  1.208380686410E+01

@ FREQUENCY DEPENDENT SECOND ORDER PROPERTIES WITH FREQUENCY :

@    a.u.:  2.4095200D-01
@    cm-1:  5.2882851D+04
@    eV  :  6.5566374D+00
@  kJ/mol:  6.3261938D+02
@    nm  :  1.8909722D+02

@ -<< ZDIPLEN  ; ZDIPLEN  >> =  1.258710371266E+01


 Time used in linear response calculation is      4.18 CPU seconds for symmetry 5

  Total CPU  time used in RESPONSE:  11.50 seconds
  Total wall time used in RESPONSE:  11.51 seconds


                   .-------------------------------------------.
                   | End of Dynamic Property Section (RESPONS) |
                   `-------------------------------------------'

  Total CPU  time used in DALTON:  13.39 seconds
  Total wall time used in DALTON:  13.42 seconds

 
     Date and time (Linux)  : Wed Jan 11 15:39:15 2023
     Host name              : cn037                                   
