

     ************************************************************************
     *************** Dalton - An Electronic Structure Program ***************
     ************************************************************************

    This is output from DALTON release Dalton2020.0 (2020)
         ( Web site: http://daltonprogram.org )

   ----------------------------------------------------------------------------

    NOTE:
     
    Dalton is an experimental code for the evaluation of molecular
    properties using (MC)SCF, DFT, CI, and CC wave functions.
    The authors accept no responsibility for the performance of
    the code or for the correctness of the results.
     
    The code (in whole or part) is provided under a licence and
    is not to be reproduced for further distribution without
    the written permission of the authors or their representatives.
     
    See the home page "http://daltonprogram.org" for further information.
     
    If results obtained with this code are published,
    the appropriate citations would be both of:
     
       K. Aidas, C. Angeli, K. L. Bak, V. Bakken, R. Bast,
       L. Boman, O. Christiansen, R. Cimiraglia, S. Coriani,
       P. Dahle, E. K. Dalskov, U. Ekstroem,
       T. Enevoldsen, J. J. Eriksen, P. Ettenhuber, B. Fernandez,
       L. Ferrighi, H. Fliegl, L. Frediani, K. Hald, A. Halkier,
       C. Haettig, H. Heiberg, T. Helgaker, A. C. Hennum,
       H. Hettema, E. Hjertenaes, S. Hoest, I.-M. Hoeyvik,
       M. F. Iozzi, B. Jansik, H. J. Aa. Jensen, D. Jonsson,
       P. Joergensen, J. Kauczor, S. Kirpekar,
       T. Kjaergaard, W. Klopper, S. Knecht, R. Kobayashi, H. Koch,
       J. Kongsted, A. Krapp, K. Kristensen, A. Ligabue,
       O. B. Lutnaes, J. I. Melo, K. V. Mikkelsen, R. H. Myhre,
       C. Neiss, C. B. Nielsen, P. Norman, J. Olsen,
       J. M. H. Olsen, A. Osted, M. J. Packer, F. Pawlowski,
       T. B. Pedersen, P. F. Provasi, S. Reine, Z. Rinkevicius,
       T. A. Ruden, K. Ruud, V. Rybkin, P. Salek, C. C. M. Samson,
       A. Sanchez de Meras, T. Saue, S. P. A. Sauer,
       B. Schimmelpfennig, K. Sneskov, A. H. Steindal,
       K. O. Sylvester-Hvid, P. R. Taylor, A. M. Teale,
       E. I. Tellgren, D. P. Tew, A. J. Thorvaldsen, L. Thoegersen,
       O. Vahtras, M. A. Watson, D. J. D. Wilson, M. Ziolkowski
       and H. Agren,
       "The Dalton quantum chemistry program system",
       WIREs Comput. Mol. Sci. 2014, 4:269–284 (doi: 10.1002/wcms.1172)
     
    and
     
       Dalton, a molecular electronic structure program,
       Release Dalton2020.0 (2020), see http://daltonprogram.org
   ----------------------------------------------------------------------------

    Authors in alphabetical order (Major contribution(s) in parenthesis):

  Kestutis Aidas,           Vilnius University,           Lithuania   (QM/MM)
  Celestino Angeli,         University of Ferrara,        Italy       (NEVPT2)
  Keld L. Bak,              UNI-C,                        Denmark     (AOSOPPA, non-adiabatic coupling, magnetic properties)
  Vebjoern Bakken,          University of Oslo,           Norway      (DALTON; geometry optimizer, symmetry detection)
  Radovan Bast,             UiT The Arctic U. of Norway,  Norway      (DALTON installation and execution frameworks)
  Pablo Baudin,             University of Valencia,       Spain       (Cholesky excitation energies)
  Linus Boman,              NTNU,                         Norway      (Cholesky decomposition and subsystems)
  Bruno N. Cabral Tenorio,  Technical Univ. of Denmark,   Denmark     (Lanczos-based CC methods)
  Ove Christiansen,         Aarhus University,            Denmark     (CC module)
  Renzo Cimiraglia,         University of Ferrara,        Italy       (NEVPT2)
  Sonia Coriani,            Technical Univ. of Denmark,   Denmark     (CC and RESPONS modules)
  Janusz Cukras,            University of Warsaw,         Poland      (MChD in RESPONS)
  Paal Dahle,               University of Oslo,           Norway      (Parallelization)
  Erik K. Dalskov,          UNI-C,                        Denmark     (SOPPA)
  Thomas Enevoldsen,        Univ. of Southern Denmark,    Denmark     (SOPPA)
  Janus J. Eriksen,         Aarhus University,            Denmark     (Polarizable embedding, TDA)
  Rasmus Faber,             Technical Univ. of Denmark,   Denmark     (Vib.avg. NMR w. SOPPA, parallel AO-SOPPA, CVS-CC and EOMCC)
  Tobias Fahleson,          KTH Stockholm,                Sweden      (Damped cubic response)
  Berta Fernandez,          U. of Santiago de Compostela, Spain       (Doublet spin, ESR in RESPONS)
  Lara Ferrighi,            Aarhus University,            Denmark     (PCM Cubic response)
  Heike Fliegl,             University of Oslo,           Norway      (CCSD(R12))
  Luca Frediani,            UiT The Arctic U. of Norway,  Norway      (PCM)
  Emmanuel Fromager,        Univ. Strasbourg,             France      (MC-srDFT)
  Bin Gao,                  UiT The Arctic U. of Norway,  Norway      (Gen1Int library)
  Andre S. P. Gomes,        CNRS/Universite de Lille,     France      (Frozen density embedding)
  Christof Haettig,         Ruhr-University Bochum,       Germany     (CC module)
  Kasper Hald,              Aarhus University,            Denmark     (CC module)
  Asger Halkier,            Aarhus University,            Denmark     (CC module)
  Frederik Beyer Hansen,    University of Copenhagen,     Denmark     (Parallel AO-SOPPA)
  Erik D. Hedegaard,        Univ. of Southern Denmark,    Denmark     (Polarizable embedding, QM/MM, and MC-srDFT)
  Hanne Heiberg,            University of Oslo,           Norway      (Geometry analysis, selected one-electron integrals)
  Trygve Helgaker,          University of Oslo,           Norway      (DALTON; ABACUS, ERI, DFT modules, London, and much more)
  Alf Christian Hennum,     University of Oslo,           Norway      (Parity violation)
  Hinne Hettema,            University of Auckland,       New Zealand (Quadratic response in RESPONS; SIRIUS supersymmetry)
  Eirik Hjertenaes,         NTNU,                         Norway      (Cholesky decomposition)
  Pi A. B. Haase,           University of Copenhagen,     Denmark     (Triplet AO-SOPPA)
  Maria Francesca Iozzi,    University of Oslo,           Norway      (RPA)
  Christoph Jacob           TU Braunschweig               Germany     (Frozen density embedding)
  Brano Jansik              Technical Univ. of Ostrava    Czech Rep.  (DFT cubic response)
  Hans Joergen Aa. Jensen,  Univ. of Southern Denmark,    Denmark     (DALTON; SIRIUS, RESPONS, ABACUS, MC-srDFT, and much more)
  Dan Jonsson,              UiT The Arctic U. of Norway,  Norway      (Cubic response in RESPONS module)
  Poul Joergensen,          Aarhus University,            Denmark     (RESPONS, ABACUS, and CC modules)
  Maciej Kaminski,          University of Warsaw,         Poland      (CPPh in RESPONS)
  Joanna Kauczor,           Linkoeping University,        Sweden      (Complex polarization propagator (CPP) module)
  Sheela Kirpekar,          Univ. of Southern Denmark,    Denmark     (Mass-velocity & Darwin integrals)
  Erik Kjellgren,           Univ. of Southern Denmark,    Denmark     (MC-srDFT)
  Wim Klopper,              KIT Karlsruhe,                Germany     (R12 code in CC, SIRIUS, and ABACUS modules)
  Stefan Knecht,            ETH Zurich,                   Switzerland (Parallel CI and MCSCF, MC-srDFT)
  Rika Kobayashi,           Australian National Univ.,    Australia   (DIIS in CC, London in MCSCF)
  Henrik Koch,              NTNU,                         Norway      (CC module, Cholesky decomposition)
  Jacob Kongsted,           Univ. of Southern Denmark,    Denmark     (Polarizable embedding, polarizable density embedding, QM/MM)
  Andrea Ligabue,           University of Modena,         Italy       (CTOCD, AOSOPPA)
  Nanna H. List             Univ. of Southern Denmark,    Denmark     (Polarizable embedding)
  Ola B. Lutnaes,           University of Oslo,           Norway      (DFT Hessian)
  Juan I. Melo,             University of Buenos Aires,   Argentina   (LRESC, Relativistic Effects on NMR Shieldings)
  Kurt V. Mikkelsen,        University of Copenhagen,     Denmark     (MC-SCRF and QM/MM)
  Rolf H. Myhre,            NTNU,                         Norway      (Subsystems and CC3)
  Christian Neiss,          Univ. Erlangen-Nuernberg,     Germany     (CCSD(R12))
  Christian B. Nielsen,     University of Copenhagen,     Denmark     (QM/MM)
  Patrick Norman,           KTH Stockholm,                Sweden      (Cubic response and complex frequency response in RESPONS)
  Jeppe Olsen,              Aarhus University,            Denmark     (SIRIUS CI/density modules)
  Jogvan Magnus H. Olsen,   Aarhus University,            Denmark     (Polarizable embedding and polarizable density embedding)
  Anders Osted,             Copenhagen University,        Denmark     (QM/MM)
  Martin J. Packer,         University of Sheffield,      UK          (SOPPA)
  Filip Pawlowski,          Kazimierz Wielki University,  Poland      (CC3)
  Morten N. Pedersen,       Univ. of Southern Denmark,    Denmark     (Polarizable embedding)
  Thomas B. Pedersen,       University of Oslo,           Norway      (Cholesky decomposition)
  Patricio F. Provasi,      University of Northeastern,   Argentina   (Analysis of coupling constants in localized orbitals)
  Peter Reinholdt,          Univ. of Southern Denmark,    Denmark     (Polarizable embedding and polarizable density embedding)
  Zilvinas Rinkevicius,     KTH Stockholm,                Sweden      (open-shell DFT, ESR)
  Elias Rudberg,            KTH Stockholm,                Sweden      (DFT grid and basis info)
  Torgeir A. Ruden,         University of Oslo,           Norway      (Numerical derivatives in ABACUS)
  Kenneth Ruud,             UiT The Arctic U. of Norway,  Norway      (DALTON; ABACUS magnetic properties and much more)
  Pawel Salek,              KTH Stockholm,                Sweden      (DALTON; DFT code)
  Claire C. M. Samson       University of Karlsruhe       Germany     (Boys localization, r12 integrals in ERI)
  Alfredo Sanchez de Meras, University of Valencia,       Spain       (CC module, Cholesky decomposition)
  Trond Saue,               Paul Sabatier University,     France      (direct Fock matrix construction)
  Stephan P. A. Sauer,      University of Copenhagen,     Denmark     (SOPPA(CCSD), SOPPA prop., AOSOPPA, vibrational g-factors)
  Bernd Schimmelpfennig,    Forschungszentrum Karlsruhe,  Germany     (AMFI module)
  Anna K. Schnack-Petersen, University of Copenhagen,     Denmark     (RPA(D) and HRPA(D) properties in AOSOPPA)
  Kristian Sneskov,         Aarhus University,            Denmark     (Polarizable embedding, QM/MM)
  Arnfinn H. Steindal,      UiT The Arctic U. of Norway,  Norway      (parallel QM/MM, polarizable embedding)
  Casper Steinmann,         Aalborg University,           Denmark     (QFIT, polarizable embedding)
  K. O. Sylvester-Hvid,     University of Copenhagen,     Denmark     (MC-SCRF)
  Peter R. Taylor,          VLSCI/Univ. of Melbourne,     Australia   (Symmetry handling ABACUS, integral transformation)
  Andrew M. Teale,          University of Nottingham,     England     (DFT-AC, DFT-D)
  David P. Tew,             University of Bristol,        England     (CCSD(R12))
  Julien Toulouse,          Sorbonne Univ.,               France      (MC-srDFT)
  Olav Vahtras,             KTH Stockholm,                Sweden      (Triplet response, spin-orbit, ESR, TDDFT, open-shell DFT)
  Lucas Visscher,           Vrije Universiteit Amsterdam, Netherlands (Frozen density embedding)
  David J. Wilson,          La Trobe University,          Australia   (DFT Hessian and DFT magnetizabilities)
  Hans Agren,               KTH Stockholm,                Sweden      (SIRIUS module, RESPONS, MC-SCRF solvation)
 --------------------------------------------------------------------------------

     Date and time (Linux)  : Wed Jan 11 14:14:32 2023
     Host name              : cn021                                   

 * Work memory size             :    64000000 =  488.28 megabytes.

 * Directories for basis set searches:
   1) /gpfs/projects/rjh/adrian/fd_compare/dalton/hf/Ar/dipole
   2) /gpfs/projects/rjh/adrian/dalton/build/basis


Compilation information
-----------------------

 Who compiled             | ahurtado
 Host                     | sn-mem
 System                   | Linux-3.10.0-1160.24.1.el7.x86_64
 CMake generator          | Unix Makefiles
 Processor                | x86_64
 64-bit integers          | OFF
 MPI                      | ON
 Fortran compiler         | /gpfs/software/intel/oneAPI/2021_4/mpi/2021.4.0/bi
                          | n/mpif90
 Fortran compiler version | GNU Fortran (GCC) 11.2.0
 C compiler               | /gpfs/software/intel/oneAPI/2021_4/mpi/2021.4.0/bi
                          | n/mpicc
 C compiler version       | gcc (GCC) 11.2.0
 C++ compiler             | /gpfs/software/intel/oneAPI/2021_4/mpi/2021.4.0/bi
                          | n/mpicxx
 C++ compiler version     | unknown
 BLAS                     | /gpfs/software/intel/oneAPI/2021_4/mkl/2021.4.0/li
                          | b/intel64/libmkl_gf_lp64.so;/gpfs/software/intel/o
                          | neAPI/2021_4/mkl/2021.4.0/lib/intel64/libmkl_seque
                          | ntial.so;/gpfs/software/intel/oneAPI/2021_4/mkl/20
                          | 21.4.0/lib/intel64/libmkl_core.so;/usr/lib64/libpt
                          | hread.so;/usr/lib64/libm.so
 LAPACK                   | /gpfs/software/intel/oneAPI/2021_4/mkl/2021.4.0/li
                          | b/intel64/libmkl_lapack95_lp64.a;/gpfs/software/in
                          | tel/oneAPI/2021_4/mkl/2021.4.0/lib/intel64/libmkl_
                          | gf_lp64.so
 Static linking           | OFF
 Last Git revision        | 66052b3af5ea7225e31178bf9a8b031913c72190
 Git branch               | (HEAD detached at Dalton2020.0)
 Configuration time       | 2023-01-11 13:33:37.731835

 * MPI parallel run using 20 processes.


   Content of the .dal input file
 ----------------------------------

**DALTON INPUT
.RUN RESPONSE
.DIRECT
**WAVE FUNCTIONS
.HF
**RESPONSE
*LINEAR
.DIPLEN
.FREQUENCIES
9
0.0 0.030119 0.060238 0.09035699999999999 0.120476 0.150595 0.18071399999999999 0.210833 0.240952
**END OF DALTON INPUT


   Content of the .mol file
 ----------------------------

BASIS
aug-cc-pV5Z
blah
blah
Atomtype=1 Atomic
Charge=18 Atoms=1
Ar_a 0.000000000000 0.000000000000 0.000000000000


       *******************************************************************
       *********** Output from DALTON general input processing ***********
       *******************************************************************

 --------------------------------------------------------------------------------
   Overall default print level:    0
   Print level for DALTON.STAT:    1

    Parallel calculation using MPI
    AO-direct calculation (in sections where implemented)
    HERMIT 1- and 2-electron integral sections will be executed
    "Old" integral transformation used (limited to max 255 basis functions)
    Wave function sections will be executed (SIRIUS module)
    Dynamic molecular response properties section will be executed (RESPONSE module)
 --------------------------------------------------------------------------------


   ****************************************************************************
   *************** Output of molecule and basis set information ***************
   ****************************************************************************


    The two title cards from your ".mol" input:
    ------------------------------------------------------------------------
 1: blah                                                                    
 2: blah                                                                    
    ------------------------------------------------------------------------

  Atomic type no.    1
  --------------------
  Nuclear charge:  18.00000
  Number of symmetry independent centers:    1
  Number of basis sets to read;    2
  Basis set file used for this atomic type with Z =  18 :
     "/gpfs/projects/rjh/adrian/dalton/build/basis/aug-cc-pV5Z"


                      SYMADD: Requested addition of symmetry
                      --------------------------------------

 Symmetry test threshold:  5.00E-06

@   The molecule is centered at center of mass and rotated
@   so principal axes of inertia are along coordinate axes.

 Symmetry class found: D(oo,h)        

 Symmetry Independent Centres             
 ----------------------------
Ar_a  18 :      0.00000000     0.00000000     0.00000000  Isotope  1

 The following symmetry elements were found:   X  Y  Z  


                         SYMGRP: Point group information
                         -------------------------------

@    Full point group is: D(oo,h)        
@    Represented as:      D2h

@  * The irrep name for each symmetry:    1: Ag     2: B3u    3: B2u    4: B1g    5: B1u    6: B2g    7: B3g    8: Au 


   * The point group was generated by:

      Reflection in the yz-plane
      Reflection in the xz-plane
      Reflection in the xy-plane

   * Group multiplication table

        |  E   C2z  C2y  C2x   i   Oxy  Oxz  Oyz
   -----+----------------------------------------
     E  |  E   C2z  C2y  C2x   i   Oxy  Oxz  Oyz
    C2z | C2z   E   C2x  C2y  Oxy   i   Oyz  Oxz
    C2y | C2y  C2x   E   C2z  Oxz  Oyz   i   Oxy
    C2x | C2x  C2y  C2z   E   Oyz  Oxz  Oxy   i 
     i  |  i   Oxy  Oxz  Oyz   E   C2z  C2y  C2x
    Oxy | Oxy   i   Oyz  Oxz  C2z   E   C2x  C2y
    Oxz | Oxz  Oyz   i   Oxy  C2y  C2x   E   C2z
    Oyz | Oyz  Oxz  Oxy   i   C2x  C2y  C2z   E 

   * Character table

        |  E   C2z  C2y  C2x   i   Oxy  Oxz  Oyz
   -----+----------------------------------------
    Ag  |   1    1    1    1    1    1    1    1
    B3u |   1   -1   -1    1   -1    1    1   -1
    B2u |   1   -1    1   -1   -1    1   -1    1
    B1g |   1    1   -1   -1    1    1   -1   -1
    B1u |   1    1   -1   -1   -1   -1    1    1
    B2g |   1   -1    1   -1    1   -1    1   -1
    B3g |   1   -1   -1    1    1   -1   -1    1
    Au  |   1    1    1    1   -1   -1   -1   -1

   * Direct product table

        | Ag   B3u  B2u  B1g  B1u  B2g  B3g  Au 
   -----+----------------------------------------
    Ag  | Ag   B3u  B2u  B1g  B1u  B2g  B3g  Au 
    B3u | B3u  Ag   B1g  B2u  B2g  B1u  Au   B3g
    B2u | B2u  B1g  Ag   B3u  B3g  Au   B1u  B2g
    B1g | B1g  B2u  B3u  Ag   Au   B3g  B2g  B1u
    B1u | B1u  B2g  B3g  Au   Ag   B3u  B2u  B1g
    B2g | B2g  B1u  Au   B3g  B3u  Ag   B1g  B2u
    B3g | B3g  Au   B1u  B2g  B2u  B1g  Ag   B3u
    Au  | Au   B3g  B2g  B1u  B1g  B2u  B3u  Ag 


                                 Isotopic Masses
                                 ---------------

                           Ar_a       39.962383

                       Total mass:    39.962383 amu
                       Natural abundance:  99.600 %

 Center-of-mass coordinates (a.u.):    0.000000    0.000000    0.000000
 Center-of-mass coordinates (Angs):    0.000000    0.000000    0.000000


  Atoms and basis sets
  --------------------

  Number of atom types :    1
  Total number of atoms:    1

  Basis set used is "aug-cc-pV5Z" from the basis set library.

  label    atoms   charge   prim   cont     basis
  ----------------------------------------------------------------------
  Ar          1   18.0000   162   131      [21s13p5d4f3g2h|8s7p5d4f3g2h]                      
  ----------------------------------------------------------------------
  total:      1   18.0000   162   131
  ----------------------------------------------------------------------
  Spherical harmonic basis used.

  Threshold for neglecting AO integrals:  1.00D-12


  Cartesian Coordinates (a.u.)
  ----------------------------

  Total number of coordinates:    3
  Ar_a    :     1  x   0.0000000000    2  y   0.0000000000    3  z   0.0000000000


  Symmetry Coordinates
  --------------------

  Number of coordinates in each symmetry:     0    1    1    0    1    0    0    0

  Symmetry  B3u ( 2)

    1   Ar_a  x    1

  Symmetry  B2u ( 3)

    2   Ar_a  y    2

  Symmetry  B1u ( 5)

    3   Ar_a  z    3


@ This is an atomic calculation.


  Symmetry Orbitals
  -----------------

  Number of orbitals in each symmetry:          27   21   21   11   21   11   11    8


  Symmetry  Ag ( 1)

    1     Ar_a     1s         1
    2     Ar_a     1s         2
    3     Ar_a     1s         3
    4     Ar_a     1s         4
    5     Ar_a     1s         5
    6     Ar_a     1s         6
    7     Ar_a     1s         7
    8     Ar_a     1s         8
    9     Ar_a     3d0       32
   10     Ar_a     3d2+      34
   11     Ar_a     3d0       37
   12     Ar_a     3d2+      39
   13     Ar_a     3d0       42
   14     Ar_a     3d2+      44
   15     Ar_a     3d0       47
   16     Ar_a     3d2+      49
   17     Ar_a     3d0       52
   18     Ar_a     3d2+      54
   19     Ar_a     5g0       87
   20     Ar_a     5g2+      89
   21     Ar_a     5g4+      91
   22     Ar_a     5g0       96
   23     Ar_a     5g2+      98
   24     Ar_a     5g4+     100
   25     Ar_a     5g0      105
   26     Ar_a     5g2+     107
   27     Ar_a     5g4+     109


  Symmetry  B3u( 2)

   28     Ar_a     2px        9
   29     Ar_a     2px       12
   30     Ar_a     2px       15
   31     Ar_a     2px       18
   32     Ar_a     2px       21
   33     Ar_a     2px       24
   34     Ar_a     2px       27
   35     Ar_a     4f1+      59
   36     Ar_a     4f3+      61
   37     Ar_a     4f1+      66
   38     Ar_a     4f3+      68
   39     Ar_a     4f1+      73
   40     Ar_a     4f3+      75
   41     Ar_a     4f1+      80
   42     Ar_a     4f3+      82
   43     Ar_a     6h1+     116
   44     Ar_a     6h3+     118
   45     Ar_a     6h5+     120
   46     Ar_a     6h1+     127
   47     Ar_a     6h3+     129
   48     Ar_a     6h5+     131


  Symmetry  B2u( 3)

   49     Ar_a     2py       10
   50     Ar_a     2py       13
   51     Ar_a     2py       16
   52     Ar_a     2py       19
   53     Ar_a     2py       22
   54     Ar_a     2py       25
   55     Ar_a     2py       28
   56     Ar_a     4f3-      55
   57     Ar_a     4f1-      57
   58     Ar_a     4f3-      62
   59     Ar_a     4f1-      64
   60     Ar_a     4f3-      69
   61     Ar_a     4f1-      71
   62     Ar_a     4f3-      76
   63     Ar_a     4f1-      78
   64     Ar_a     6h5-     110
   65     Ar_a     6h3-     112
   66     Ar_a     6h1-     114
   67     Ar_a     6h5-     121
   68     Ar_a     6h3-     123
   69     Ar_a     6h1-     125


  Symmetry  B1g( 4)

   70     Ar_a     3d2-      30
   71     Ar_a     3d2-      35
   72     Ar_a     3d2-      40
   73     Ar_a     3d2-      45
   74     Ar_a     3d2-      50
   75     Ar_a     5g4-      83
   76     Ar_a     5g2-      85
   77     Ar_a     5g4-      92
   78     Ar_a     5g2-      94
   79     Ar_a     5g4-     101
   80     Ar_a     5g2-     103


  Symmetry  B1u( 5)

   81     Ar_a     2pz       11
   82     Ar_a     2pz       14
   83     Ar_a     2pz       17
   84     Ar_a     2pz       20
   85     Ar_a     2pz       23
   86     Ar_a     2pz       26
   87     Ar_a     2pz       29
   88     Ar_a     4f0       58
   89     Ar_a     4f2+      60
   90     Ar_a     4f0       65
   91     Ar_a     4f2+      67
   92     Ar_a     4f0       72
   93     Ar_a     4f2+      74
   94     Ar_a     4f0       79
   95     Ar_a     4f2+      81
   96     Ar_a     6h0      115
   97     Ar_a     6h2+     117
   98     Ar_a     6h4+     119
   99     Ar_a     6h0      126
  100     Ar_a     6h2+     128
  101     Ar_a     6h4+     130


  Symmetry  B2g( 6)

  102     Ar_a     3d1+      33
  103     Ar_a     3d1+      38
  104     Ar_a     3d1+      43
  105     Ar_a     3d1+      48
  106     Ar_a     3d1+      53
  107     Ar_a     5g1+      88
  108     Ar_a     5g3+      90
  109     Ar_a     5g1+      97
  110     Ar_a     5g3+      99
  111     Ar_a     5g1+     106
  112     Ar_a     5g3+     108


  Symmetry  B3g( 7)

  113     Ar_a     3d1-      31
  114     Ar_a     3d1-      36
  115     Ar_a     3d1-      41
  116     Ar_a     3d1-      46
  117     Ar_a     3d1-      51
  118     Ar_a     5g3-      84
  119     Ar_a     5g1-      86
  120     Ar_a     5g3-      93
  121     Ar_a     5g1-      95
  122     Ar_a     5g3-     102
  123     Ar_a     5g1-     104


  Symmetry  Au ( 8)

  124     Ar_a     4f2-      56
  125     Ar_a     4f2-      63
  126     Ar_a     4f2-      70
  127     Ar_a     4f2-      77
  128     Ar_a     6h4-     111
  129     Ar_a     6h2-     113
  130     Ar_a     6h4-     122
  131     Ar_a     6h2-     124

  Symmetries of electric field:  B3u(2)  B2u(3)  B1u(5)

  Symmetries of magnetic field:  B3g(7)  B2g(6)  B1g(4)


                     .---------------------------------------.
                     | Starting in Integral Section (HERMIT) |
                     `---------------------------------------'



 ***************************************************************************************
 ****************** Output from **INTEGRALS input processing (HERMIT) ******************
 ***************************************************************************************


 - Using defaults, no **INTEGRALS input found

 Default print level:        1

 Calculation of one-electron Hamiltonian integrals.

 Center of mass  (bohr):      0.000000000000      0.000000000000      0.000000000000
 Operator center (bohr):      0.000000000000      0.000000000000      0.000000000000
 Gauge origin    (bohr):      0.000000000000      0.000000000000      0.000000000000
 Dipole origin   (bohr):      0.000000000000      0.000000000000      0.000000000000


     ************************************************************************
     ************************** Output from HERINT **************************
     ************************************************************************



                      Nuclear contribution to dipole moments
                      --------------------------------------

                    All dipole components are zero by symmetry


  Time used in GABGEN     is       0.25 seconds
  Total CPU  time used in HERMIT:   0.38 seconds
  Total wall time used in HERMIT:   0.39 seconds


                        .----------------------------------.
                        | End of Integral Section (HERMIT) |
                        `----------------------------------'



                   .--------------------------------------------.
                   | Starting in Wave Function Section (SIRIUS) |
                   `--------------------------------------------'


 *** Output from Huckel module :

     Using EWMO model:          T
     Using EHT  model:          F
     Number of Huckel orbitals each symmetry:    5    2    2    1    2    1    1    0

 EWMO - Energy Weighted Maximum Overlap - is a Huckel type method,
        which normally is better than Extended Huckel Theory.
 Reference: Linderberg and Ohrn, Propagators in Quantum Chemistry (Wiley, 1973)

 Huckel EWMO eigenvalues for symmetry :  1
         -118.609800     -12.322100      -1.277300      -0.055556      -0.055556

 Huckel EWMO eigenvalues for symmetry :  2
           -9.571400      -0.591000

 Huckel EWMO eigenvalues for symmetry :  3
           -9.571400      -0.591000

 Huckel EWMO eigenvalues for symmetry :  4
           -0.055556

 Huckel EWMO eigenvalues for symmetry :  5
           -9.571400      -0.591000

 Huckel EWMO eigenvalues for symmetry :  6
           -0.055556

 Huckel EWMO eigenvalues for symmetry :  7
           -0.055556

 **********************************************************************
 *SIRIUS* a direct, restricted step, second order MCSCF program       *
 **********************************************************************

 
     Date and time (Linux)  : Wed Jan 11 14:14:32 2023
     Host name              : cn021                                   

 Title lines from ".mol" input file:
     blah                                                                    
     blah                                                                    

 Print level on unit LUPRI =   2 is   0
 Print level on unit LUW4  =   2 is   5

@    Restricted, closed shell Hartree-Fock calculation.

@    Time-dependent Hartree-Fock calculation (random phase approximation).
 Fock matrices are calculated directly and in parallel without use of integrals on disk.

 Initial molecular orbitals are obtained according to
 ".MOSTART EWMO  " input option

     Wave function specification
     ============================
@    Wave function type        --- HF ---
@    Number of closed shell electrons          18
@    Number of electrons in active shells       0
@    Total charge of the molecule               0

@    Spin multiplicity and 2 M_S                1         0
@    Total number of symmetries                 8 (point group: D2h)
@    Reference state symmetry                   1 (irrep name : Ag )

     Orbital specifications
     ======================
@    Abelian symmetry species          All |    1    2    3    4    5    6    7    8
@                                          |  Ag   B3u  B2u  B1g  B1u  B2g  B3g  Au 
                                       --- |  ---  ---  ---  ---  ---  ---  ---  ---
@    Total number of orbitals          131 |   27   21   21   11   21   11   11    8
@    Number of basis functions         131 |   27   21   21   11   21   11   11    8

      ** Automatic occupation of RHF orbitals **

      -- Initial occupation of symmetries is determined from extended Huckel guess.           
      -- Initial occupation of symmetries is :
@    Occupied SCF orbitals               9 |    3    2    2    0    2    0    0    0

     Maximum number of Fock   iterations      0
     Maximum number of DIIS   iterations     60
     Maximum number of QC-SCF iterations     60
     Threshold for SCF convergence     1.00D-05


 ***********************************************
 ***** DIIS acceleration of SCF iterations *****
 ***********************************************

 C1-DIIS algorithm; max error vectors =    8

 Automatic occupation of symmetries with  18 electrons.

 Iter     Total energy    Error norm  Delta(E)    SCF occupation
 -----------------------------------------------------------------------------
   1  Screening settings (-IFTHRS, JTDIIS, DIFDEN, times)   -7    1    T  7.97D-02  8.00D-02
@  1  -526.816553231       3.79D-01  -5.27D+02     3   2   2   0   2   0   0   0
      Virial theorem: -V/T =      1.999739
@    MULPOP   Ar_a    0.00; 
   1  Level shift: doubly occupied orbital energies shifted by -2.00D-01
 -----------------------------------------------------------------------------
   2  Screening settings (-IFTHRS, JTDIIS, DIFDEN, times)   -7    2    T  5.86D-02  5.90D-02
@  2  -526.817318908       2.30D-02  -7.66D-04     3   2   2   0   2   0   0   0
      Virial theorem: -V/T =      2.000080
@    MULPOP   Ar_a    0.00; 
   2  Level shift: doubly occupied orbital energies shifted by -5.00D-02
 -----------------------------------------------------------------------------
   3  Screening settings (-IFTHRS, JTDIIS, DIFDEN, times)  -11    3    F  5.85D-02  5.90D-02
@  3  -526.817346032       5.90D-03  -2.71D-05     3   2   2   0   2   0   0   0
      Virial theorem: -V/T =      1.999977
@    MULPOP   Ar_a   -0.00; 
   3  Level shift: doubly occupied orbital energies shifted by -2.50D-02
 -----------------------------------------------------------------------------
   4  Screening settings (-IFTHRS, JTDIIS, DIFDEN, times)  -11    4    T  5.84D-02  5.80D-02
@  4  -526.817347232       9.56D-04  -1.20D-06     3   2   2   0   2   0   0   0
      Virial theorem: -V/T =      2.000003
@    MULPOP   Ar_a   -0.00; 
 -----------------------------------------------------------------------------
   5  Screening settings (-IFTHRS, JTDIIS, DIFDEN, times)  -11    5    T  5.85D-02  5.80D-02
@  5  -526.817347301       5.90D-05  -6.92D-08     3   2   2   0   2   0   0   0
      Virial theorem: -V/T =      2.000001
@    MULPOP   Ar_a    0.00; 
 -----------------------------------------------------------------------------
   6  Screening settings (-IFTHRS, JTDIIS, DIFDEN, times)  -11    6    T  5.33D-02  5.30D-02
@  6  -526.817347302       6.30D-06  -4.33D-10     3   2   2   0   2   0   0   0

@ *** DIIS converged in   6 iterations !
@     Converged SCF energy, gradient:   -526.817347301842    6.30D-06
    - total time used in SIRFCK :              0.00 seconds


 *** SCF orbital energy analysis ***

 Only the 20 lowest virtual orbital energies printed in each symmetry.

 Number of electrons :   18
 Orbital occupations :    3    2    2    0    2    0    0    0

 Sym       Hartree-Fock orbital energies

1 Ag   -118.61037775   -12.32217471    -1.27737424     0.10019188     0.32005638
          0.32005638     0.59807376     0.78085976     0.78085976     1.60230726
          1.60230726     1.60230726     1.93852190     1.93852190     2.28276957
          3.91768915     3.91768915     3.91768915     5.06895466     5.06895466
          7.84820668     8.81196042     8.81196042

2 B3u    -9.57146696    -0.59103066     0.09825325     0.45364676     0.77065715
          0.77065715     1.58448058     1.90904027     1.90904027     4.03522415
          4.03522415     4.13500700     4.13500700     4.13500700     5.03895353
          8.13387761     8.13387761     9.24258279     9.24258279     9.24258279
         55.13070273

3 B2u    -9.57146696    -0.59103066     0.09825325     0.45364676     0.77065715
          0.77065715     1.58448058     1.90904027     1.90904027     4.03522415
          4.03522415     4.13500700     4.13500700     4.13500700     5.03895353
          8.13387761     8.13387761     9.24258279     9.24258279     9.24258279
         55.13070273

4 B1g     0.32005638     0.78085976     1.60230726     1.60230726     1.93852190
          3.91768915     3.91768915     5.06895466     8.81196042     8.81196042
         13.22350188

5 B1u    -9.57146696    -0.59103066     0.09825325     0.45364676     0.77065715
          0.77065715     1.58448058     1.90904027     1.90904027     4.03522415
          4.03522415     4.13500700     4.13500700     4.13500700     5.03895353
          8.13387761     8.13387761     9.24258279     9.24258279     9.24258279
         55.13070274

6 B2g     0.32005638     0.78085976     1.60230726     1.60230726     1.93852190
          3.91768915     3.91768915     5.06895466     8.81196042     8.81196042
         13.22350188

7 B3g     0.32005638     0.78085976     1.60230726     1.60230726     1.93852190
          3.91768915     3.91768915     5.06895466     8.81196042     8.81196042
         13.22350188

8 Au      0.77065715     1.90904027     4.03522415     4.13500700     4.13500700
          8.13387761     9.24258279     9.24258279

    E(LUMO) :     0.09825325 au (symmetry 3)
  - E(HOMO) :    -0.59103066 au (symmetry 5)
  ------------------------------------------
    gap     :     0.68928392 au

 --- Writing SIRIFC interface file

 CPU and wall time for SCF :       0.376       0.380


                       .-----------------------------------.
                       | --- Final results from SIRIUS --- |
                       `-----------------------------------'


@    Spin multiplicity:           1
@    Spatial symmetry:            1 ( irrep  Ag  in D2h )
@    Total charge of molecule:    0

@    Final HF energy:            -526.817347301842                 
@    Nuclear repulsion:             0.000000000000
@    Electronic energy:          -526.817347301842

@    Final gradient norm:           0.000006297944

 
     Date and time (Linux)  : Wed Jan 11 14:14:33 2023
     Host name              : cn021                                   

File label for MO orbitals:  11Jan23   FOCKDIIS

 (Only coefficients > 0.0100 are printed.)

 Molecular orbitals for symmetry species 1  (Ag )
 ------------------------------------------------

    Orbital         1        2        3        4        5        6        7
   1 Ar_a:1s     1.0000  -0.0008   0.0024   0.0086   0.0000  -0.0000  -0.0324
   2 Ar_a:1s     0.0001   0.9533   0.3021   0.0838   0.0000  -0.0000   0.0717
   3 Ar_a:1s     0.0025   0.3022  -0.9540  -0.0140   0.0000  -0.0000  -1.5093
   4 Ar_a:1s    -0.0000   0.0000  -0.0004   0.1300   0.0000  -0.0000  -0.5592
   5 Ar_a:1s     0.0000  -0.0000   0.0011  -0.4236  -0.0000   0.0000   1.7776
   6 Ar_a:1s    -0.0000   0.0000  -0.0010   0.5572  -0.0000   0.0000  -3.0362
   7 Ar_a:1s     0.0000  -0.0000   0.0017  -1.4900  -0.0000   0.0000   4.8589
   8 Ar_a:1s    -0.0000   0.0000  -0.0009   1.8222   0.0000  -0.0000  -1.6810
   9 Ar_a:3d0    0.0000  -0.0000   0.0000  -0.0000  -0.0000   0.0252   0.0000
  10 Ar_a:3d2+  -0.0000   0.0000   0.0000  -0.0000   0.0252  -0.0000   0.0000
  13 Ar_a:3d0    0.0000  -0.0000   0.0000   0.0000  -0.0000   0.1898   0.0000
  14 Ar_a:3d2+   0.0000   0.0000   0.0000  -0.0000   0.1898   0.0000   0.0000
  15 Ar_a:3d0    0.0000   0.0000  -0.0000   0.0000   0.0000  -0.1681   0.0000
  16 Ar_a:3d2+  -0.0000  -0.0000  -0.0000  -0.0000  -0.1681  -0.0000  -0.0000
  17 Ar_a:3d0    0.0000  -0.0000   0.0000  -0.0000   0.0000   1.0549   0.0000
  18 Ar_a:3d2+   0.0000   0.0000   0.0000   0.0000   1.0549   0.0000   0.0000

    Orbital         8        9       10       11       12       13
   9 Ar_a:3d0   -0.0435   0.0000  -0.0000   0.0000  -0.0000  -0.1681
  10 Ar_a:3d2+  -0.0000   0.0435  -0.0000  -0.0000  -0.0000  -0.0000
  11 Ar_a:3d0   -0.1861   0.0000  -0.0000   0.0000  -0.0000  -0.0392
  12 Ar_a:3d2+   0.0000   0.1861   0.0000  -0.0000  -0.0000   0.0000
  13 Ar_a:3d0   -0.0578  -0.0000  -0.0000  -0.0000   0.0000  -1.3504
  14 Ar_a:3d2+  -0.0000   0.0578  -0.0000  -0.0000  -0.0000  -0.0000
  15 Ar_a:3d0   -1.1979  -0.0000   0.0000  -0.0000  -0.0000   1.6679
  16 Ar_a:3d2+   0.0000   1.1979  -0.0000   0.0000   0.0000   0.0000
  17 Ar_a:3d0    0.9031   0.0000   0.0000   0.0000  -0.0000  -0.6548
  18 Ar_a:3d2+  -0.0000  -0.9031   0.0000  -0.0000   0.0000  -0.0000
  19 Ar_a:5g0    0.0000  -0.0000  -0.0000   0.0000  -0.0884   0.0000
  20 Ar_a:5g2+   0.0000   0.0000  -0.0000  -0.0884   0.0000   0.0000
  21 Ar_a:5g4+   0.0000  -0.0000  -0.0884   0.0000   0.0000   0.0000
  22 Ar_a:5g0   -0.0000   0.0000   0.0000  -0.0000   0.4195  -0.0000
  23 Ar_a:5g2+  -0.0000   0.0000   0.0000   0.4195   0.0000  -0.0000
  24 Ar_a:5g4+  -0.0000   0.0000   0.4195  -0.0000  -0.0000  -0.0000
  25 Ar_a:5g0    0.0000  -0.0000  -0.0000   0.0000  -1.2560   0.0000
  26 Ar_a:5g2+   0.0000  -0.0000  -0.0000  -1.2560  -0.0000   0.0000
  27 Ar_a:5g4+   0.0000  -0.0000  -1.2560   0.0000   0.0000   0.0000

 Molecular orbitals for symmetry species 2  (B3u)
 ------------------------------------------------

    Orbital         1        2        3        4        5        6        7
   1 Ar_a:2px    0.9209   0.3900   0.0358  -0.3403  -0.0000   0.0000  -0.0043
   2 Ar_a:2px   -0.3898   0.9212   0.1141  -0.6412  -0.0000   0.0000  -0.4090
   3 Ar_a:2px    0.0000   0.0001  -0.0132  -0.0691   0.0000  -0.0000   0.2034
   4 Ar_a:2px   -0.0001  -0.0007   0.1119   0.4544   0.0000  -0.0000  -2.0914
   5 Ar_a:2px    0.0001   0.0010  -0.2028  -1.0869   0.0000  -0.0000   3.4047
   6 Ar_a:2px   -0.0002  -0.0021   0.6537   2.5347   0.0000  -0.0000  -1.8190
   7 Ar_a:2px    0.0001   0.0020  -1.3730  -1.0504   0.0000  -0.0000   0.5522
   8 Ar_a:4f1+  -0.0000  -0.0000  -0.0000   0.0000  -0.0000  -0.0618   0.0000
   9 Ar_a:4f3+  -0.0000   0.0000   0.0000  -0.0000  -0.0618   0.0000  -0.0000
  10 Ar_a:4f1+   0.0000   0.0000   0.0000  -0.0000   0.0000   0.2786  -0.0000
  11 Ar_a:4f3+   0.0000  -0.0000  -0.0000   0.0000   0.2786  -0.0000   0.0000
  12 Ar_a:4f1+   0.0000  -0.0000  -0.0000   0.0000  -0.0000  -0.6982   0.0000
  13 Ar_a:4f3+  -0.0000   0.0000   0.0000  -0.0000  -0.6982   0.0000  -0.0000
  14 Ar_a:4f1+  -0.0000   0.0000   0.0000  -0.0000   0.0000   1.4105  -0.0000
  15 Ar_a:4f3+   0.0000  -0.0000  -0.0000   0.0000   1.4105  -0.0000   0.0000

    Orbital         8        9       10       11       12
   8 Ar_a:4f1+  -0.0000  -0.1900  -0.1955  -0.0000   0.0000
   9 Ar_a:4f3+  -0.1900  -0.0000   0.0000  -0.1955  -0.0000
  10 Ar_a:4f1+   0.0000   0.5449   2.0606   0.0000  -0.0000
  11 Ar_a:4f3+   0.5449   0.0000  -0.0000   2.0606   0.0000
  12 Ar_a:4f1+  -0.0000  -2.0445  -2.0509  -0.0000   0.0000
  13 Ar_a:4f3+  -2.0445  -0.0000   0.0000  -2.0509  -0.0000
  14 Ar_a:4f1+   0.0000   1.1489   0.7964   0.0000  -0.0000
  15 Ar_a:4f3+   1.1489   0.0000  -0.0000   0.7964   0.0000
  17 Ar_a:6h3+   0.0000  -0.0000  -0.0000   0.0000  -0.4465
  20 Ar_a:6h3+  -0.0000   0.0000   0.0000  -0.0000   1.3183

 Molecular orbitals for symmetry species 3  (B2u)
 ------------------------------------------------

    Orbital         1        2        3        4        5        6        7
   1 Ar_a:2py    0.9209   0.3900   0.0358  -0.3403   0.0000   0.0000  -0.0043
   2 Ar_a:2py   -0.3898   0.9212   0.1141  -0.6412   0.0000   0.0000  -0.4090
   3 Ar_a:2py    0.0000   0.0001  -0.0132  -0.0691  -0.0000  -0.0000   0.2034
   4 Ar_a:2py   -0.0001  -0.0007   0.1119   0.4544  -0.0000  -0.0000  -2.0914
   5 Ar_a:2py    0.0001   0.0010  -0.2028  -1.0869  -0.0000  -0.0000   3.4047
   6 Ar_a:2py   -0.0002  -0.0021   0.6537   2.5347  -0.0000  -0.0000  -1.8190
   7 Ar_a:2py    0.0001   0.0020  -1.3730  -1.0504  -0.0000  -0.0000   0.5522
   8 Ar_a:4f3-   0.0000  -0.0000  -0.0000   0.0000  -0.0000  -0.0618   0.0000
   9 Ar_a:4f1-  -0.0000  -0.0000  -0.0000   0.0000  -0.0618   0.0000   0.0000
  10 Ar_a:4f3-  -0.0000   0.0000   0.0000  -0.0000   0.0000   0.2786  -0.0000
  11 Ar_a:4f1-   0.0000   0.0000   0.0000  -0.0000   0.2786  -0.0000  -0.0000
  12 Ar_a:4f3-   0.0000  -0.0000  -0.0000   0.0000  -0.0000  -0.6982   0.0000
  13 Ar_a:4f1-   0.0000  -0.0000  -0.0000   0.0000  -0.6982  -0.0000   0.0000
  14 Ar_a:4f3-  -0.0000   0.0000   0.0000  -0.0000  -0.0000   1.4105  -0.0000
  15 Ar_a:4f1-  -0.0000   0.0000   0.0000  -0.0000   1.4105   0.0000  -0.0000

    Orbital         8        9       10       11       12
   8 Ar_a:4f3-   0.0000  -0.1900   0.0000  -0.1955   0.0000
   9 Ar_a:4f1-  -0.1900  -0.0000  -0.1955  -0.0000   0.0000
  10 Ar_a:4f3-  -0.0000   0.5449  -0.0000   2.0606  -0.0000
  11 Ar_a:4f1-   0.5449   0.0000   2.0606   0.0000  -0.0000
  12 Ar_a:4f3-   0.0000  -2.0445   0.0000  -2.0509   0.0000
  13 Ar_a:4f1-  -2.0445  -0.0000  -2.0509  -0.0000   0.0000
  14 Ar_a:4f3-  -0.0000   1.1489  -0.0000   0.7964  -0.0000
  15 Ar_a:4f1-   1.1489   0.0000   0.7964   0.0000  -0.0000
  16 Ar_a:6h5-   0.0000   0.0000   0.0000   0.0000  -0.4465
  19 Ar_a:6h5-  -0.0000  -0.0000  -0.0000  -0.0000   1.3183

 Molecular orbitals for symmetry species 4  (B1g)
 ------------------------------------------------

    Orbital         1        2        3        4        5        6        7
   1 Ar_a:3d2-   0.0252   0.0435   0.0000  -0.0000  -0.1681  -0.0000   0.0000
   2 Ar_a:3d2-   0.0064   0.1861  -0.0000  -0.0000  -0.0392  -0.0000   0.0000
   3 Ar_a:3d2-   0.1898   0.0578   0.0000  -0.0000  -1.3504  -0.0000   0.0000
   4 Ar_a:3d2-  -0.1681   1.1979   0.0000   0.0000   1.6679   0.0000   0.0000
   5 Ar_a:3d2-   1.0549  -0.9031  -0.0000   0.0000  -0.6548   0.0000   0.0000
   6 Ar_a:5g4-   0.0000   0.0000  -0.0884   0.0000  -0.0000   0.1768   0.0000
   7 Ar_a:5g2-  -0.0000  -0.0000  -0.0000  -0.0884   0.0000   0.0000   0.1768
   8 Ar_a:5g4-  -0.0000  -0.0000   0.4195  -0.0000   0.0000  -1.5704  -0.0000
   9 Ar_a:5g2-   0.0000   0.0000   0.0000   0.4195  -0.0000  -0.0000  -1.5704
  10 Ar_a:5g4-   0.0000   0.0000  -1.2560   0.0000  -0.0000   0.8641   0.0000
  11 Ar_a:5g2-  -0.0000  -0.0000  -0.0000  -1.2560   0.0000   0.0000   0.8641

    Orbital         8        9       10
   1 Ar_a:3d2-  -0.1345  -0.0000   0.0000
   2 Ar_a:3d2-  -1.4122  -0.0000   0.0000
   3 Ar_a:3d2-   1.9188  -0.0000   0.0000
   4 Ar_a:3d2-  -1.1198  -0.0000  -0.0000
   5 Ar_a:3d2-   0.3624  -0.0000   0.0000
   6 Ar_a:5g4-  -0.0000   1.3757  -0.0000
   7 Ar_a:5g2-   0.0000   0.0000   1.3757
   8 Ar_a:5g4-   0.0000  -1.1138   0.0000
   9 Ar_a:5g2-  -0.0000  -0.0000  -1.1138
  10 Ar_a:5g4-  -0.0000   0.4687  -0.0000
  11 Ar_a:5g2-   0.0000   0.0000   0.4687

 Molecular orbitals for symmetry species 5  (B1u)
 ------------------------------------------------

    Orbital         1        2        3        4        5        6        7
   1 Ar_a:2pz    0.9209   0.3900   0.0358  -0.3403  -0.0000  -0.0000  -0.0043
   2 Ar_a:2pz   -0.3898   0.9212   0.1141  -0.6412  -0.0000  -0.0000  -0.4090
   3 Ar_a:2pz    0.0000   0.0001  -0.0132  -0.0691   0.0000   0.0000   0.2034
   4 Ar_a:2pz   -0.0001  -0.0007   0.1119   0.4544   0.0000   0.0000  -2.0914
   5 Ar_a:2pz    0.0001   0.0010  -0.2028  -1.0869   0.0000   0.0000   3.4047
   6 Ar_a:2pz   -0.0002  -0.0021   0.6537   2.5347   0.0000   0.0000  -1.8190
   7 Ar_a:2pz    0.0001   0.0020  -1.3730  -1.0504   0.0000   0.0000   0.5522
   8 Ar_a:4f0   -0.0000   0.0000   0.0000  -0.0000  -0.0000  -0.0618  -0.0000
   9 Ar_a:4f2+   0.0000   0.0000   0.0000  -0.0000  -0.0618   0.0000  -0.0000
  10 Ar_a:4f0    0.0000  -0.0000  -0.0000   0.0000   0.0000   0.2786   0.0000
  11 Ar_a:4f2+  -0.0000  -0.0000  -0.0000   0.0000   0.2786  -0.0000   0.0000
  12 Ar_a:4f0   -0.0000   0.0000   0.0000  -0.0000  -0.0000  -0.6982  -0.0000
  13 Ar_a:4f2+   0.0000   0.0000   0.0000  -0.0000  -0.6982   0.0000  -0.0000
  14 Ar_a:4f0    0.0000  -0.0000  -0.0000   0.0000   0.0000   1.4105   0.0000
  15 Ar_a:4f2+  -0.0000  -0.0000  -0.0000   0.0000   1.4105  -0.0000   0.0000

    Orbital         8        9       10       11       12
   8 Ar_a:4f0   -0.1900  -0.0000  -0.1955  -0.0000  -0.0000
   9 Ar_a:4f2+  -0.0000  -0.1900   0.0000  -0.1955  -0.0000
  10 Ar_a:4f0    0.5449   0.0000   2.0606   0.0000   0.0000
  11 Ar_a:4f2+   0.0000   0.5449  -0.0000   2.0606   0.0000
  12 Ar_a:4f0   -2.0445  -0.0000  -2.0509   0.0000  -0.0000
  13 Ar_a:4f2+  -0.0000  -2.0445   0.0000  -2.0509  -0.0000
  14 Ar_a:4f0    1.1489   0.0000   0.7964   0.0000   0.0000
  15 Ar_a:4f2+  -0.0000   1.1489  -0.0000   0.7964   0.0000
  16 Ar_a:6h0   -0.0000  -0.0000   0.0000   0.0000  -0.4465
  19 Ar_a:6h0   -0.0000  -0.0000  -0.0000  -0.0000   1.3183

 Molecular orbitals for symmetry species 6  (B2g)
 ------------------------------------------------

    Orbital         1        2        3        4        5        6        7
   1 Ar_a:3d1+   0.0252   0.0435  -0.0000   0.0000  -0.1681   0.0000  -0.0000
   2 Ar_a:3d1+   0.0064   0.1861  -0.0000   0.0000  -0.0392   0.0000  -0.0000
   3 Ar_a:3d1+   0.1898   0.0578  -0.0000  -0.0000  -1.3504   0.0000  -0.0000
   4 Ar_a:3d1+  -0.1681   1.1979   0.0000  -0.0000   1.6679   0.0000   0.0000
   5 Ar_a:3d1+   1.0549  -0.9031   0.0000   0.0000  -0.6548   0.0000  -0.0000
   6 Ar_a:5g1+  -0.0000  -0.0000  -0.0884  -0.0000   0.0000   0.1768   0.0000
   7 Ar_a:5g3+   0.0000   0.0000  -0.0000  -0.0884  -0.0000   0.0000   0.1768
   8 Ar_a:5g1+   0.0000   0.0000   0.4195   0.0000  -0.0000  -1.5704  -0.0000
   9 Ar_a:5g3+  -0.0000  -0.0000   0.0000   0.4195   0.0000  -0.0000  -1.5704
  10 Ar_a:5g1+  -0.0000  -0.0000  -1.2560  -0.0000   0.0000   0.8641   0.0000
  11 Ar_a:5g3+   0.0000   0.0000  -0.0000  -1.2560  -0.0000   0.0000   0.8641

    Orbital         8        9       10
   1 Ar_a:3d1+  -0.1345   0.0000  -0.0000
   2 Ar_a:3d1+  -1.4122   0.0000  -0.0000
   3 Ar_a:3d1+   1.9188   0.0000  -0.0000
   4 Ar_a:3d1+  -1.1198  -0.0000   0.0000
   5 Ar_a:3d1+   0.3624   0.0000   0.0000
   6 Ar_a:5g1+   0.0000   1.3757  -0.0000
   7 Ar_a:5g3+  -0.0000   0.0000   1.3757
   8 Ar_a:5g1+  -0.0000  -1.1138   0.0000
   9 Ar_a:5g3+   0.0000  -0.0000  -1.1138
  10 Ar_a:5g1+   0.0000   0.4687  -0.0000
  11 Ar_a:5g3+  -0.0000   0.0000   0.4687

 Molecular orbitals for symmetry species 7  (B3g)
 ------------------------------------------------

    Orbital         1        2        3        4        5        6        7
   1 Ar_a:3d1-   0.0252   0.0435  -0.0000   0.0000  -0.1681   0.0000  -0.0000
   2 Ar_a:3d1-   0.0064   0.1861  -0.0000   0.0000  -0.0392  -0.0000  -0.0000
   3 Ar_a:3d1-   0.1898   0.0578   0.0000  -0.0000  -1.3504  -0.0000  -0.0000
   4 Ar_a:3d1-  -0.1681   1.1979   0.0000  -0.0000   1.6679   0.0000   0.0000
   5 Ar_a:3d1-   1.0549  -0.9031  -0.0000   0.0000  -0.6548   0.0000  -0.0000
   6 Ar_a:5g3-   0.0000   0.0000  -0.0000  -0.0884  -0.0000   0.0000   0.1768
   7 Ar_a:5g1-   0.0000   0.0000  -0.0884   0.0000  -0.0000   0.1768   0.0000
   8 Ar_a:5g3-  -0.0000  -0.0000   0.0000   0.4195   0.0000  -0.0000  -1.5704
   9 Ar_a:5g1-   0.0000   0.0000   0.4195  -0.0000   0.0000  -1.5704   0.0000
  10 Ar_a:5g3-   0.0000   0.0000  -0.0000  -1.2560  -0.0000   0.0000   0.8641
  11 Ar_a:5g1-  -0.0000  -0.0000  -1.2560   0.0000   0.0000   0.8641  -0.0000

    Orbital         8        9       10
   1 Ar_a:3d1-  -0.1345  -0.0000  -0.0000
   2 Ar_a:3d1-  -1.4122  -0.0000  -0.0000
   3 Ar_a:3d1-   1.9188   0.0000  -0.0000
   4 Ar_a:3d1-  -1.1198  -0.0000   0.0000
   5 Ar_a:3d1-   0.3624  -0.0000   0.0000
   6 Ar_a:5g3-  -0.0000  -0.0000   1.3757
   7 Ar_a:5g1-  -0.0000   1.3757   0.0000
   8 Ar_a:5g3-   0.0000   0.0000  -1.1138
   9 Ar_a:5g1-   0.0000  -1.1138  -0.0000
  10 Ar_a:5g3-  -0.0000  -0.0000   0.4687
  11 Ar_a:5g1-   0.0000   0.4687   0.0000

 Molecular orbitals for symmetry species 8  (Au )
 ------------------------------------------------

    Orbital         1        2        3        4        5        6        7
   1 Ar_a:4f2-  -0.0618  -0.1900  -0.1955   0.0000   0.0000  -1.9302   0.0000
   2 Ar_a:4f2-   0.2786   0.5449   2.0606   0.0000   0.0000   2.4177   0.0000
   3 Ar_a:4f2-  -0.6982  -2.0445  -2.0509   0.0000   0.0000  -1.4997   0.0000
   4 Ar_a:4f2-   1.4105   1.1489   0.7964   0.0000   0.0000   0.5112   0.0000
   5 Ar_a:6h4-   0.0000   0.0000   0.0000   0.0000  -0.4465   0.0000   0.0000
   6 Ar_a:6h2-   0.0000   0.0000   0.0000  -0.4465   0.0000   0.0000   1.5914
   7 Ar_a:6h4-   0.0000   0.0000   0.0000   0.0000   1.3183   0.0000   0.0000
   8 Ar_a:6h2-   0.0000   0.0000   0.0000   1.3183   0.0000   0.0000  -0.9970

    Orbital         8
   5 Ar_a:6h4-   1.5914
   7 Ar_a:6h4-  -0.9970

  Total CPU  time used in SIRIUS :   0.38 seconds
  Total wall time used in SIRIUS :   0.40 seconds

 
     Date and time (Linux)  : Wed Jan 11 14:14:33 2023
     Host name              : cn021                                   


                     .---------------------------------------.
                     | End of Wave Function Section (SIRIUS) |
                     `---------------------------------------'



                 .------------------------------------------------.
                 | Starting in Dynamic Property Section (RESPONS) |
                 `------------------------------------------------'


 ----------------------------------------------------------------------------------------
  RESPONSE  -  an MCSCF, MC-srDFT, DFT, SOPPA and SOPPA-srDFT response property program
 ----------------------------------------------------------------------------------------


 -------- OUTPUT FROM RESPONSE INPUT PROCESSING --------




 Linear Response calculation
 ---------------------------

 Print level                                    : IPRLR  =   2
 Maximum number of iterations                   : MAXITL =  60
 Threshold for relative convergence             : THCLR  = 1.000D-03
 Maximum iterations in optimal orbital algorithm: MAXITO =   5

  9 B-frequencies  0.000000D+00  3.011900D-02  6.023800D-02  9.035700D-02  1.204760D-01
  1.505950D-01  1.807140D-01  2.108330D-01  2.409520D-01

    1 second order properties calculated with symmetry no.    2 and labels:

          XDIPLEN 

    1 second order properties calculated with symmetry no.    3 and labels:

          YDIPLEN 

    1 second order properties calculated with symmetry no.    5 and labels:

          ZDIPLEN 


   SCF energy         :     -526.817347301842119
 -- inactive part     :     -526.817347301842119
 -- nuclear repulsion :        0.000000000000000


                     ***************************************
                     *** RHF response calculation (TDHF) ***
                     ***************************************

 ----------------------------------------------------------------
 ----- Linear response calculation
 ----- Symmetry of excitation/property operator(s)    2  ( B3u)
 ----------------------------------------------------------------

 Number of excitations of this symmetry            0
 Number of response properties of this symmetry    1
 Number of C6/C8 properties of this symmetry       0


 Perturbation symmetry.     KSYMOP:           2
 Perturbation spin symmetry.TRPLET:           F
 Orbital variables.         KZWOPT:         149
 Configuration variables.   KZCONF:           0
 Total number of variables. KZVAR :         149


 RSPLR -- linear response calculation for symmetry 2  ( B3u)
 RSPLR -- operator label : XDIPLEN 
 RSPLR -- operator spin  :   0
 RSPLR -- frequencies    :     0.000000  0.030119  0.060238  0.090357  0.120476
                               0.150595  0.180714  0.210833  0.240952



 ---  SOLVING SETS OF LINEAR EQUATIONS FOR LINEAR RESPONSE PROPERTIES ---

 Operator symmetry = 2  ( B3u); triplet =   F


 ** RSPCTL MICROITERATION NUMBER    1

       No.  Residual tot.,    conf., and orb.    Bnorm      Frequency 
      ----------------------------------------------------------------
         1    4.75092D-01  0.00D+00  4.75D-01  2.57D+00    0.00000D+00
         2    4.75828D-01  0.00D+00  4.76D-01  2.58D+00    3.01190D-02
         3    4.78053D-01  0.00D+00  4.78D-01  2.62D+00    6.02380D-02
         4    4.81822D-01  0.00D+00  4.82D-01  2.67D+00    9.03570D-02
         5    4.87233D-01  0.00D+00  4.87D-01  2.75D+00    1.20476D-01
         6    4.94434D-01  0.00D+00  4.94D-01  2.86D+00    1.50595D-01
         7    5.03647D-01  0.00D+00  5.04D-01  3.00D+00    1.80714D-01
         8    5.15198D-01  0.00D+00  5.15D-01  3.19D+00    2.10833D-01
         9    5.29587D-01  0.00D+00  5.30D-01  3.43D+00    2.40952D-01

 ** RSPCTL MICROITERATION NUMBER    2

       No.  Residual tot.,    conf., and orb.    Bnorm      Frequency 
      ----------------------------------------------------------------
         1    1.56461D-02  0.00D+00  1.56D-02  2.59D+00    0.00000D+00
         2    1.56724D-02  0.00D+00  1.57D-02  2.60D+00    3.01190D-02
         3    1.57520D-02  0.00D+00  1.58D-02  2.63D+00    6.02380D-02
         4    1.58871D-02  0.00D+00  1.59D-02  2.68D+00    9.03570D-02
         5    1.60818D-02  0.00D+00  1.61D-02  2.77D+00    1.20476D-01
         6    1.63424D-02  0.00D+00  1.63D-02  2.88D+00    1.50595D-01
         7    1.66787D-02  0.00D+00  1.67D-02  3.02D+00    1.80714D-01
         8    1.71057D-02  0.00D+00  1.71D-02  3.21D+00    2.10833D-01
         9    1.76479D-02  0.00D+00  1.76D-02  3.45D+00    2.40952D-01

 ** RSPCTL MICROITERATION NUMBER    3

       No.  Residual tot.,    conf., and orb.    Bnorm      Frequency 
      ----------------------------------------------------------------
         1    3.10779D-04  0.00D+00  3.11D-04  2.59D+00    0.00000D+00
         2    3.16043D-04  0.00D+00  3.16D-04  2.60D+00    3.01190D-02
         3    3.31742D-04  0.00D+00  3.32D-04  2.63D+00    6.02380D-02
         4    3.57696D-04  0.00D+00  3.58D-04  2.68D+00    9.03570D-02
         5    3.93858D-04  0.00D+00  3.94D-04  2.77D+00    1.20476D-01
         6    4.40558D-04  0.00D+00  4.41D-04  2.88D+00    1.50595D-01
         7    4.98722D-04  0.00D+00  4.99D-04  3.02D+00    1.80714D-01
         8    5.70080D-04  0.00D+00  5.70D-04  3.21D+00    2.10833D-01
         9    6.57480D-04  0.00D+00  6.57D-04  3.45D+00    2.40952D-01

 *** THE REQUESTED    9 SOLUTION VECTORS CONVERGED

 Convergence of RSP solution vectors, threshold = 1.00D-03
 ---------------------------------------------------------------
 (dimension of paired reduced space:   54)
 RSP solution vector no.    1; norm of residual   1.20D-04
 RSP solution vector no.    2; norm of residual   1.22D-04
 RSP solution vector no.    3; norm of residual   1.26D-04
 RSP solution vector no.    4; norm of residual   1.33D-04
 RSP solution vector no.    5; norm of residual   1.42D-04
 RSP solution vector no.    6; norm of residual   1.53D-04
 RSP solution vector no.    7; norm of residual   1.65D-04
 RSP solution vector no.    8; norm of residual   1.78D-04
 RSP solution vector no.    9; norm of residual   1.91D-04

 *** RSPCTL MICROITERATIONS CONVERGED


           Final output of second order properties from linear response
           ------------------------------------------------------------


@ Spin symmetry of operators: singlet

 Note that minus the linear response function: - << A; B >>(omega) is printed.
 The results are of quadratic accuracy using Sellers formula.

@ FREQUENCY INDEPENDENT SECOND ORDER PROPERTIES

@ -<< XDIPLEN  ; XDIPLEN  >> =  1.071295479919E+01

@ FREQUENCY DEPENDENT SECOND ORDER PROPERTIES WITH FREQUENCY :

@    a.u.:  3.0119000D-02
@    cm-1:  6.6103564D+03
@    eV  :  8.1957968D-01
@  kJ/mol:  7.9077422D+01
@    nm  :  1.5127777D+03

@ -<< XDIPLEN  ; XDIPLEN  >> =  1.073539850390E+01

@ FREQUENCY DEPENDENT SECOND ORDER PROPERTIES WITH FREQUENCY :

@    a.u.:  6.0238000D-02
@    cm-1:  1.3220713D+04
@    eV  :  1.6391594D+00
@  kJ/mol:  1.5815484D+02
@    nm  :  7.5638887D+02

@ -<< XDIPLEN  ; XDIPLEN  >> =  1.080347216626E+01

@ FREQUENCY DEPENDENT SECOND ORDER PROPERTIES WITH FREQUENCY :

@    a.u.:  9.0357000D-02
@    cm-1:  1.9831069D+04
@    eV  :  2.4587390D+00
@  kJ/mol:  2.3723227D+02
@    nm  :  5.0425925D+02

@ -<< XDIPLEN  ; XDIPLEN  >> =  1.091947904673E+01

@ FREQUENCY DEPENDENT SECOND ORDER PROPERTIES WITH FREQUENCY :

@    a.u.:  1.2047600D-01
@    cm-1:  2.6441425D+04
@    eV  :  3.2783187D+00
@  kJ/mol:  3.1630969D+02
@    nm  :  3.7819444D+02

@ -<< XDIPLEN  ; XDIPLEN  >> =  1.108752674376E+01

@ FREQUENCY DEPENDENT SECOND ORDER PROPERTIES WITH FREQUENCY :

@    a.u.:  1.5059500D-01
@    cm-1:  3.3051782D+04
@    eV  :  4.0978984D+00
@  kJ/mol:  3.9538711D+02
@    nm  :  3.0255555D+02

@ -<< XDIPLEN  ; XDIPLEN  >> =  1.131399586635E+01

@ FREQUENCY DEPENDENT SECOND ORDER PROPERTIES WITH FREQUENCY :

@    a.u.:  1.8071400D-01
@    cm-1:  3.9662138D+04
@    eV  :  4.9174781D+00
@  kJ/mol:  4.7446453D+02
@    nm  :  2.5212962D+02

@ -<< XDIPLEN  ; XDIPLEN  >> =  1.160835544179E+01

@ FREQUENCY DEPENDENT SECOND ORDER PROPERTIES WITH FREQUENCY :

@    a.u.:  2.1083300D-01
@    cm-1:  4.6272495D+04
@    eV  :  5.7370578D+00
@  kJ/mol:  5.5354196D+02
@    nm  :  2.1611111D+02

@ -<< XDIPLEN  ; XDIPLEN  >> =  1.198457050520E+01

@ FREQUENCY DEPENDENT SECOND ORDER PROPERTIES WITH FREQUENCY :

@    a.u.:  2.4095200D-01
@    cm-1:  5.2882851D+04
@    eV  :  6.5566374D+00
@  kJ/mol:  6.3261938D+02
@    nm  :  1.8909722D+02

@ -<< XDIPLEN  ; XDIPLEN  >> =  1.246361277258E+01


 Time used in linear response calculation is      1.06 CPU seconds for symmetry 2
 ----------------------------------------------------------------
 ----- Linear response calculation
 ----- Symmetry of excitation/property operator(s)    3  ( B2u)
 ----------------------------------------------------------------

 Number of excitations of this symmetry            0
 Number of response properties of this symmetry    1
 Number of C6/C8 properties of this symmetry       0


 Perturbation symmetry.     KSYMOP:           3
 Perturbation spin symmetry.TRPLET:           F
 Orbital variables.         KZWOPT:         149
 Configuration variables.   KZCONF:           0
 Total number of variables. KZVAR :         149


 RSPLR -- linear response calculation for symmetry 3  ( B2u)
 RSPLR -- operator label : YDIPLEN 
 RSPLR -- operator spin  :   0
 RSPLR -- frequencies    :     0.000000  0.030119  0.060238  0.090357  0.120476
                               0.150595  0.180714  0.210833  0.240952



 ---  SOLVING SETS OF LINEAR EQUATIONS FOR LINEAR RESPONSE PROPERTIES ---

 Operator symmetry = 3  ( B2u); triplet =   F

RSPORT:    1 out of    9 new trial vectors linear dependent

 ** RSPCTL MICROITERATION NUMBER    1

       No.  Residual tot.,    conf., and orb.    Bnorm      Frequency 
      ----------------------------------------------------------------
         1    4.92510D-01  0.00D+00  4.93D-01  2.57D+00    0.00000D+00
         2    4.93533D-01  0.00D+00  4.94D-01  2.58D+00    3.01190D-02
         3    4.96631D-01  0.00D+00  4.97D-01  2.62D+00    6.02380D-02
         4    5.01907D-01  0.00D+00  5.02D-01  2.67D+00    9.03570D-02
         5    5.09537D-01  0.00D+00  5.10D-01  2.75D+00    1.20476D-01
         6    5.19802D-01  0.00D+00  5.20D-01  2.86D+00    1.50595D-01
         7    5.33118D-01  0.00D+00  5.33D-01  3.00D+00    1.80714D-01
         8    5.50105D-01  0.00D+00  5.50D-01  3.19D+00    2.10833D-01
         9    5.71715D-01  0.00D+00  5.72D-01  3.43D+00    2.40952D-01

 ** RSPCTL MICROITERATION NUMBER    2

       No.  Residual tot.,    conf., and orb.    Bnorm      Frequency 
      ----------------------------------------------------------------
         1    1.56372D-02  0.00D+00  1.56D-02  2.59D+00    0.00000D+00
         2    1.56642D-02  0.00D+00  1.57D-02  2.60D+00    3.01190D-02
         3    1.57459D-02  0.00D+00  1.57D-02  2.63D+00    6.02380D-02
         4    1.58851D-02  0.00D+00  1.59D-02  2.68D+00    9.03570D-02
         5    1.60866D-02  0.00D+00  1.61D-02  2.77D+00    1.20476D-01
         6    1.63581D-02  0.00D+00  1.64D-02  2.88D+00    1.50595D-01
         7    1.67113D-02  0.00D+00  1.67D-02  3.02D+00    1.80714D-01
         8    1.71641D-02  0.00D+00  1.72D-02  3.21D+00    2.10833D-01
         9    1.77455D-02  0.00D+00  1.77D-02  3.45D+00    2.40952D-01

 ** RSPCTL MICROITERATION NUMBER    3

       No.  Residual tot.,    conf., and orb.    Bnorm      Frequency 
      ----------------------------------------------------------------
         1    1.07224D-03  0.00D+00  1.07D-03  2.59D+00    0.00000D+00
         2    1.07562D-03  0.00D+00  1.08D-03  2.60D+00    3.01190D-02
         3    1.08588D-03  0.00D+00  1.09D-03  2.63D+00    6.02380D-02
         4    1.10334D-03  0.00D+00  1.10D-03  2.68D+00    9.03570D-02
         5    1.12855D-03  0.00D+00  1.13D-03  2.77D+00    1.20476D-01
         6    1.16239D-03  0.00D+00  1.16D-03  2.88D+00    1.50595D-01
         7    1.20610D-03  0.00D+00  1.21D-03  3.02D+00    1.80714D-01
         8    1.26150D-03  0.00D+00  1.26D-03  3.21D+00    2.10833D-01
         9    1.33121D-03  0.00D+00  1.33D-03  3.45D+00    2.40952D-01

 *** THE REQUESTED    9 SOLUTION VECTORS CONVERGED

 Convergence of RSP solution vectors, threshold = 1.00D-03
 ---------------------------------------------------------------
 (dimension of paired reduced space:   52)
 RSP solution vector no.    1; norm of residual   4.15D-04
 RSP solution vector no.    2; norm of residual   4.14D-04
 RSP solution vector no.    3; norm of residual   4.13D-04
 RSP solution vector no.    4; norm of residual   4.11D-04
 RSP solution vector no.    5; norm of residual   4.08D-04
 RSP solution vector no.    6; norm of residual   4.04D-04
 RSP solution vector no.    7; norm of residual   3.99D-04
 RSP solution vector no.    8; norm of residual   3.93D-04
 RSP solution vector no.    9; norm of residual   3.86D-04

 *** RSPCTL MICROITERATIONS CONVERGED


           Final output of second order properties from linear response
           ------------------------------------------------------------


@ Spin symmetry of operators: singlet

 Note that minus the linear response function: - << A; B >>(omega) is printed.
 The results are of quadratic accuracy using Sellers formula.

@ FREQUENCY INDEPENDENT SECOND ORDER PROPERTIES

@ -<< YDIPLEN  ; YDIPLEN  >> =  1.071295477118E+01

@ FREQUENCY DEPENDENT SECOND ORDER PROPERTIES WITH FREQUENCY :

@    a.u.:  3.0119000D-02
@    cm-1:  6.6103564D+03
@    eV  :  8.1957968D-01
@  kJ/mol:  7.9077422D+01
@    nm  :  1.5127777D+03

@ -<< YDIPLEN  ; YDIPLEN  >> =  1.073539847579E+01

@ FREQUENCY DEPENDENT SECOND ORDER PROPERTIES WITH FREQUENCY :

@    a.u.:  6.0238000D-02
@    cm-1:  1.3220713D+04
@    eV  :  1.6391594D+00
@  kJ/mol:  1.5815484D+02
@    nm  :  7.5638887D+02

@ -<< YDIPLEN  ; YDIPLEN  >> =  1.080347213789E+01

@ FREQUENCY DEPENDENT SECOND ORDER PROPERTIES WITH FREQUENCY :

@    a.u.:  9.0357000D-02
@    cm-1:  1.9831069D+04
@    eV  :  2.4587390D+00
@  kJ/mol:  2.3723227D+02
@    nm  :  5.0425925D+02

@ -<< YDIPLEN  ; YDIPLEN  >> =  1.091947901792E+01

@ FREQUENCY DEPENDENT SECOND ORDER PROPERTIES WITH FREQUENCY :

@    a.u.:  1.2047600D-01
@    cm-1:  2.6441425D+04
@    eV  :  3.2783187D+00
@  kJ/mol:  3.1630969D+02
@    nm  :  3.7819444D+02

@ -<< YDIPLEN  ; YDIPLEN  >> =  1.108752671435E+01

@ FREQUENCY DEPENDENT SECOND ORDER PROPERTIES WITH FREQUENCY :

@    a.u.:  1.5059500D-01
@    cm-1:  3.3051782D+04
@    eV  :  4.0978984D+00
@  kJ/mol:  3.9538711D+02
@    nm  :  3.0255555D+02

@ -<< YDIPLEN  ; YDIPLEN  >> =  1.131399583621E+01

@ FREQUENCY DEPENDENT SECOND ORDER PROPERTIES WITH FREQUENCY :

@    a.u.:  1.8071400D-01
@    cm-1:  3.9662138D+04
@    eV  :  4.9174781D+00
@  kJ/mol:  4.7446453D+02
@    nm  :  2.5212962D+02

@ -<< YDIPLEN  ; YDIPLEN  >> =  1.160835541084E+01

@ FREQUENCY DEPENDENT SECOND ORDER PROPERTIES WITH FREQUENCY :

@    a.u.:  2.1083300D-01
@    cm-1:  4.6272495D+04
@    eV  :  5.7370578D+00
@  kJ/mol:  5.5354196D+02
@    nm  :  2.1611111D+02

@ -<< YDIPLEN  ; YDIPLEN  >> =  1.198457047345E+01

@ FREQUENCY DEPENDENT SECOND ORDER PROPERTIES WITH FREQUENCY :

@    a.u.:  2.4095200D-01
@    cm-1:  5.2882851D+04
@    eV  :  6.5566374D+00
@  kJ/mol:  6.3261938D+02
@    nm  :  1.8909722D+02

@ -<< YDIPLEN  ; YDIPLEN  >> =  1.246361274021E+01


 Time used in linear response calculation is      1.04 CPU seconds for symmetry 3
 ----------------------------------------------------------------
 ----- Linear response calculation
 ----- Symmetry of excitation/property operator(s)    5  ( B1u)
 ----------------------------------------------------------------

 Number of excitations of this symmetry            0
 Number of response properties of this symmetry    1
 Number of C6/C8 properties of this symmetry       0


 Perturbation symmetry.     KSYMOP:           5
 Perturbation spin symmetry.TRPLET:           F
 Orbital variables.         KZWOPT:         149
 Configuration variables.   KZCONF:           0
 Total number of variables. KZVAR :         149


 RSPLR -- linear response calculation for symmetry 5  ( B1u)
 RSPLR -- operator label : ZDIPLEN 
 RSPLR -- operator spin  :   0
 RSPLR -- frequencies    :     0.000000  0.030119  0.060238  0.090357  0.120476
                               0.150595  0.180714  0.210833  0.240952



 ---  SOLVING SETS OF LINEAR EQUATIONS FOR LINEAR RESPONSE PROPERTIES ---

 Operator symmetry = 5  ( B1u); triplet =   F


 ** RSPCTL MICROITERATION NUMBER    1

       No.  Residual tot.,    conf., and orb.    Bnorm      Frequency 
      ----------------------------------------------------------------
         1    4.73980D-01  0.00D+00  4.74D-01  2.57D+00    0.00000D+00
         2    4.74727D-01  0.00D+00  4.75D-01  2.58D+00    3.01190D-02
         3    4.76984D-01  0.00D+00  4.77D-01  2.62D+00    6.02380D-02
         4    4.80808D-01  0.00D+00  4.81D-01  2.67D+00    9.03570D-02
         5    4.86296D-01  0.00D+00  4.86D-01  2.75D+00    1.20476D-01
         6    4.93601D-01  0.00D+00  4.94D-01  2.86D+00    1.50595D-01
         7    5.02946D-01  0.00D+00  5.03D-01  3.00D+00    1.80714D-01
         8    5.14664D-01  0.00D+00  5.15D-01  3.19D+00    2.10833D-01
         9    5.29258D-01  0.00D+00  5.29D-01  3.43D+00    2.40952D-01

 ** RSPCTL MICROITERATION NUMBER    2

       No.  Residual tot.,    conf., and orb.    Bnorm      Frequency 
      ----------------------------------------------------------------
         1    1.54356D-02  0.00D+00  1.54D-02  2.59D+00    0.00000D+00
         2    1.54737D-02  0.00D+00  1.55D-02  2.60D+00    3.01190D-02
         3    1.55898D-02  0.00D+00  1.56D-02  2.63D+00    6.02380D-02
         4    1.57894D-02  0.00D+00  1.58D-02  2.68D+00    9.03570D-02
         5    1.60828D-02  0.00D+00  1.61D-02  2.77D+00    1.20476D-01
         6    1.64859D-02  0.00D+00  1.65D-02  2.88D+00    1.50595D-01
         7    1.70227D-02  0.00D+00  1.70D-02  3.02D+00    1.80714D-01
         8    1.77298D-02  0.00D+00  1.77D-02  3.21D+00    2.10833D-01
         9    1.86629D-02  0.00D+00  1.87D-02  3.45D+00    2.40952D-01

 ** RSPCTL MICROITERATION NUMBER    3

       No.  Residual tot.,    conf., and orb.    Bnorm      Frequency 
      ----------------------------------------------------------------
         1    3.71951D-04  0.00D+00  3.72D-04  2.59D+00    0.00000D+00
         2    3.83408D-04  0.00D+00  3.83D-04  2.60D+00    3.01190D-02
         3    4.16845D-04  0.00D+00  4.17D-04  2.63D+00    6.02380D-02
         4    4.70261D-04  0.00D+00  4.70D-04  2.68D+00    9.03570D-02
         5    5.42057D-04  0.00D+00  5.42D-04  2.77D+00    1.20476D-01
         6    6.32024D-04  0.00D+00  6.32D-04  2.88D+00    1.50595D-01
         7    7.41744D-04  0.00D+00  7.42D-04  3.02D+00    1.80714D-01
         8    8.74889D-04  0.00D+00  8.75D-04  3.21D+00    2.10833D-01
         9    1.03782D-03  0.00D+00  1.04D-03  3.45D+00    2.40952D-01

 *** THE REQUESTED    9 SOLUTION VECTORS CONVERGED

 Convergence of RSP solution vectors, threshold = 1.00D-03
 ---------------------------------------------------------------
 (dimension of paired reduced space:   54)
 RSP solution vector no.    1; norm of residual   1.44D-04
 RSP solution vector no.    2; norm of residual   1.48D-04
 RSP solution vector no.    3; norm of residual   1.59D-04
 RSP solution vector no.    4; norm of residual   1.75D-04
 RSP solution vector no.    5; norm of residual   1.96D-04
 RSP solution vector no.    6; norm of residual   2.20D-04
 RSP solution vector no.    7; norm of residual   2.46D-04
 RSP solution vector no.    8; norm of residual   2.73D-04
 RSP solution vector no.    9; norm of residual   3.01D-04

 *** RSPCTL MICROITERATIONS CONVERGED


           Final output of second order properties from linear response
           ------------------------------------------------------------


@ Spin symmetry of operators: singlet

 Note that minus the linear response function: - << A; B >>(omega) is printed.
 The results are of quadratic accuracy using Sellers formula.

@ FREQUENCY INDEPENDENT SECOND ORDER PROPERTIES

@ -<< ZDIPLEN  ; ZDIPLEN  >> =  1.071295479186E+01

@ FREQUENCY DEPENDENT SECOND ORDER PROPERTIES WITH FREQUENCY :

@    a.u.:  3.0119000D-02
@    cm-1:  6.6103564D+03
@    eV  :  8.1957968D-01
@  kJ/mol:  7.9077422D+01
@    nm  :  1.5127777D+03

@ -<< ZDIPLEN  ; ZDIPLEN  >> =  1.073539849622E+01

@ FREQUENCY DEPENDENT SECOND ORDER PROPERTIES WITH FREQUENCY :

@    a.u.:  6.0238000D-02
@    cm-1:  1.3220713D+04
@    eV  :  1.6391594D+00
@  kJ/mol:  1.5815484D+02
@    nm  :  7.5638887D+02

@ -<< ZDIPLEN  ; ZDIPLEN  >> =  1.080347215754E+01

@ FREQUENCY DEPENDENT SECOND ORDER PROPERTIES WITH FREQUENCY :

@    a.u.:  9.0357000D-02
@    cm-1:  1.9831069D+04
@    eV  :  2.4587390D+00
@  kJ/mol:  2.3723227D+02
@    nm  :  5.0425925D+02

@ -<< ZDIPLEN  ; ZDIPLEN  >> =  1.091947903616E+01

@ FREQUENCY DEPENDENT SECOND ORDER PROPERTIES WITH FREQUENCY :

@    a.u.:  1.2047600D-01
@    cm-1:  2.6441425D+04
@    eV  :  3.2783187D+00
@  kJ/mol:  3.1630969D+02
@    nm  :  3.7819444D+02

@ -<< ZDIPLEN  ; ZDIPLEN  >> =  1.108752673036E+01

@ FREQUENCY DEPENDENT SECOND ORDER PROPERTIES WITH FREQUENCY :

@    a.u.:  1.5059500D-01
@    cm-1:  3.3051782D+04
@    eV  :  4.0978984D+00
@  kJ/mol:  3.9538711D+02
@    nm  :  3.0255555D+02

@ -<< ZDIPLEN  ; ZDIPLEN  >> =  1.131399584883E+01

@ FREQUENCY DEPENDENT SECOND ORDER PROPERTIES WITH FREQUENCY :

@    a.u.:  1.8071400D-01
@    cm-1:  3.9662138D+04
@    eV  :  4.9174781D+00
@  kJ/mol:  4.7446453D+02
@    nm  :  2.5212962D+02

@ -<< ZDIPLEN  ; ZDIPLEN  >> =  1.160835541838E+01

@ FREQUENCY DEPENDENT SECOND ORDER PROPERTIES WITH FREQUENCY :

@    a.u.:  2.1083300D-01
@    cm-1:  4.6272495D+04
@    eV  :  5.7370578D+00
@  kJ/mol:  5.5354196D+02
@    nm  :  2.1611111D+02

@ -<< ZDIPLEN  ; ZDIPLEN  >> =  1.198457047340E+01

@ FREQUENCY DEPENDENT SECOND ORDER PROPERTIES WITH FREQUENCY :

@    a.u.:  2.4095200D-01
@    cm-1:  5.2882851D+04
@    eV  :  6.5566374D+00
@  kJ/mol:  6.3261938D+02
@    nm  :  1.8909722D+02

@ -<< ZDIPLEN  ; ZDIPLEN  >> =  1.246361272858E+01


 Time used in linear response calculation is      1.06 CPU seconds for symmetry 5

  Total CPU  time used in RESPONSE:   3.17 seconds
  Total wall time used in RESPONSE:   3.20 seconds


                   .-------------------------------------------.
                   | End of Dynamic Property Section (RESPONS) |
                   `-------------------------------------------'



 PLTORB knows S,P,D,F,G shells. The basis set contains orbital(s) with higher angular momentum,
 and the writing of MOLPLT file is thus abandoned.

  Total CPU  time used in DALTON:   3.97 seconds
  Total wall time used in DALTON:   4.03 seconds

 
     Date and time (Linux)  : Wed Jan 11 14:14:36 2023
     Host name              : cn021                                   
