

     ************************************************************************
     *************** Dalton - An Electronic Structure Program ***************
     ************************************************************************

    This is output from DALTON release Dalton2020.0 (2020)
         ( Web site: http://daltonprogram.org )

   ----------------------------------------------------------------------------

    NOTE:
     
    Dalton is an experimental code for the evaluation of molecular
    properties using (MC)SCF, DFT, CI, and CC wave functions.
    The authors accept no responsibility for the performance of
    the code or for the correctness of the results.
     
    The code (in whole or part) is provided under a licence and
    is not to be reproduced for further distribution without
    the written permission of the authors or their representatives.
     
    See the home page "http://daltonprogram.org" for further information.
     
    If results obtained with this code are published,
    the appropriate citations would be both of:
     
       K. Aidas, C. Angeli, K. L. Bak, V. Bakken, R. Bast,
       L. Boman, O. Christiansen, R. Cimiraglia, S. Coriani,
       P. Dahle, E. K. Dalskov, U. Ekstroem,
       T. Enevoldsen, J. J. Eriksen, P. Ettenhuber, B. Fernandez,
       L. Ferrighi, H. Fliegl, L. Frediani, K. Hald, A. Halkier,
       C. Haettig, H. Heiberg, T. Helgaker, A. C. Hennum,
       H. Hettema, E. Hjertenaes, S. Hoest, I.-M. Hoeyvik,
       M. F. Iozzi, B. Jansik, H. J. Aa. Jensen, D. Jonsson,
       P. Joergensen, J. Kauczor, S. Kirpekar,
       T. Kjaergaard, W. Klopper, S. Knecht, R. Kobayashi, H. Koch,
       J. Kongsted, A. Krapp, K. Kristensen, A. Ligabue,
       O. B. Lutnaes, J. I. Melo, K. V. Mikkelsen, R. H. Myhre,
       C. Neiss, C. B. Nielsen, P. Norman, J. Olsen,
       J. M. H. Olsen, A. Osted, M. J. Packer, F. Pawlowski,
       T. B. Pedersen, P. F. Provasi, S. Reine, Z. Rinkevicius,
       T. A. Ruden, K. Ruud, V. Rybkin, P. Salek, C. C. M. Samson,
       A. Sanchez de Meras, T. Saue, S. P. A. Sauer,
       B. Schimmelpfennig, K. Sneskov, A. H. Steindal,
       K. O. Sylvester-Hvid, P. R. Taylor, A. M. Teale,
       E. I. Tellgren, D. P. Tew, A. J. Thorvaldsen, L. Thoegersen,
       O. Vahtras, M. A. Watson, D. J. D. Wilson, M. Ziolkowski
       and H. Agren,
       "The Dalton quantum chemistry program system",
       WIREs Comput. Mol. Sci. 2014, 4:269–284 (doi: 10.1002/wcms.1172)
     
    and
     
       Dalton, a molecular electronic structure program,
       Release Dalton2020.0 (2020), see http://daltonprogram.org
   ----------------------------------------------------------------------------

    Authors in alphabetical order (Major contribution(s) in parenthesis):

  Kestutis Aidas,           Vilnius University,           Lithuania   (QM/MM)
  Celestino Angeli,         University of Ferrara,        Italy       (NEVPT2)
  Keld L. Bak,              UNI-C,                        Denmark     (AOSOPPA, non-adiabatic coupling, magnetic properties)
  Vebjoern Bakken,          University of Oslo,           Norway      (DALTON; geometry optimizer, symmetry detection)
  Radovan Bast,             UiT The Arctic U. of Norway,  Norway      (DALTON installation and execution frameworks)
  Pablo Baudin,             University of Valencia,       Spain       (Cholesky excitation energies)
  Linus Boman,              NTNU,                         Norway      (Cholesky decomposition and subsystems)
  Bruno N. Cabral Tenorio,  Technical Univ. of Denmark,   Denmark     (Lanczos-based CC methods)
  Ove Christiansen,         Aarhus University,            Denmark     (CC module)
  Renzo Cimiraglia,         University of Ferrara,        Italy       (NEVPT2)
  Sonia Coriani,            Technical Univ. of Denmark,   Denmark     (CC and RESPONS modules)
  Janusz Cukras,            University of Warsaw,         Poland      (MChD in RESPONS)
  Paal Dahle,               University of Oslo,           Norway      (Parallelization)
  Erik K. Dalskov,          UNI-C,                        Denmark     (SOPPA)
  Thomas Enevoldsen,        Univ. of Southern Denmark,    Denmark     (SOPPA)
  Janus J. Eriksen,         Aarhus University,            Denmark     (Polarizable embedding, TDA)
  Rasmus Faber,             Technical Univ. of Denmark,   Denmark     (Vib.avg. NMR w. SOPPA, parallel AO-SOPPA, CVS-CC and EOMCC)
  Tobias Fahleson,          KTH Stockholm,                Sweden      (Damped cubic response)
  Berta Fernandez,          U. of Santiago de Compostela, Spain       (Doublet spin, ESR in RESPONS)
  Lara Ferrighi,            Aarhus University,            Denmark     (PCM Cubic response)
  Heike Fliegl,             University of Oslo,           Norway      (CCSD(R12))
  Luca Frediani,            UiT The Arctic U. of Norway,  Norway      (PCM)
  Emmanuel Fromager,        Univ. Strasbourg,             France      (MC-srDFT)
  Bin Gao,                  UiT The Arctic U. of Norway,  Norway      (Gen1Int library)
  Andre S. P. Gomes,        CNRS/Universite de Lille,     France      (Frozen density embedding)
  Christof Haettig,         Ruhr-University Bochum,       Germany     (CC module)
  Kasper Hald,              Aarhus University,            Denmark     (CC module)
  Asger Halkier,            Aarhus University,            Denmark     (CC module)
  Frederik Beyer Hansen,    University of Copenhagen,     Denmark     (Parallel AO-SOPPA)
  Erik D. Hedegaard,        Univ. of Southern Denmark,    Denmark     (Polarizable embedding, QM/MM, and MC-srDFT)
  Hanne Heiberg,            University of Oslo,           Norway      (Geometry analysis, selected one-electron integrals)
  Trygve Helgaker,          University of Oslo,           Norway      (DALTON; ABACUS, ERI, DFT modules, London, and much more)
  Alf Christian Hennum,     University of Oslo,           Norway      (Parity violation)
  Hinne Hettema,            University of Auckland,       New Zealand (Quadratic response in RESPONS; SIRIUS supersymmetry)
  Eirik Hjertenaes,         NTNU,                         Norway      (Cholesky decomposition)
  Pi A. B. Haase,           University of Copenhagen,     Denmark     (Triplet AO-SOPPA)
  Maria Francesca Iozzi,    University of Oslo,           Norway      (RPA)
  Christoph Jacob           TU Braunschweig               Germany     (Frozen density embedding)
  Brano Jansik              Technical Univ. of Ostrava    Czech Rep.  (DFT cubic response)
  Hans Joergen Aa. Jensen,  Univ. of Southern Denmark,    Denmark     (DALTON; SIRIUS, RESPONS, ABACUS, MC-srDFT, and much more)
  Dan Jonsson,              UiT The Arctic U. of Norway,  Norway      (Cubic response in RESPONS module)
  Poul Joergensen,          Aarhus University,            Denmark     (RESPONS, ABACUS, and CC modules)
  Maciej Kaminski,          University of Warsaw,         Poland      (CPPh in RESPONS)
  Joanna Kauczor,           Linkoeping University,        Sweden      (Complex polarization propagator (CPP) module)
  Sheela Kirpekar,          Univ. of Southern Denmark,    Denmark     (Mass-velocity & Darwin integrals)
  Erik Kjellgren,           Univ. of Southern Denmark,    Denmark     (MC-srDFT)
  Wim Klopper,              KIT Karlsruhe,                Germany     (R12 code in CC, SIRIUS, and ABACUS modules)
  Stefan Knecht,            ETH Zurich,                   Switzerland (Parallel CI and MCSCF, MC-srDFT)
  Rika Kobayashi,           Australian National Univ.,    Australia   (DIIS in CC, London in MCSCF)
  Henrik Koch,              NTNU,                         Norway      (CC module, Cholesky decomposition)
  Jacob Kongsted,           Univ. of Southern Denmark,    Denmark     (Polarizable embedding, polarizable density embedding, QM/MM)
  Andrea Ligabue,           University of Modena,         Italy       (CTOCD, AOSOPPA)
  Nanna H. List             Univ. of Southern Denmark,    Denmark     (Polarizable embedding)
  Ola B. Lutnaes,           University of Oslo,           Norway      (DFT Hessian)
  Juan I. Melo,             University of Buenos Aires,   Argentina   (LRESC, Relativistic Effects on NMR Shieldings)
  Kurt V. Mikkelsen,        University of Copenhagen,     Denmark     (MC-SCRF and QM/MM)
  Rolf H. Myhre,            NTNU,                         Norway      (Subsystems and CC3)
  Christian Neiss,          Univ. Erlangen-Nuernberg,     Germany     (CCSD(R12))
  Christian B. Nielsen,     University of Copenhagen,     Denmark     (QM/MM)
  Patrick Norman,           KTH Stockholm,                Sweden      (Cubic response and complex frequency response in RESPONS)
  Jeppe Olsen,              Aarhus University,            Denmark     (SIRIUS CI/density modules)
  Jogvan Magnus H. Olsen,   Aarhus University,            Denmark     (Polarizable embedding and polarizable density embedding)
  Anders Osted,             Copenhagen University,        Denmark     (QM/MM)
  Martin J. Packer,         University of Sheffield,      UK          (SOPPA)
  Filip Pawlowski,          Kazimierz Wielki University,  Poland      (CC3)
  Morten N. Pedersen,       Univ. of Southern Denmark,    Denmark     (Polarizable embedding)
  Thomas B. Pedersen,       University of Oslo,           Norway      (Cholesky decomposition)
  Patricio F. Provasi,      University of Northeastern,   Argentina   (Analysis of coupling constants in localized orbitals)
  Peter Reinholdt,          Univ. of Southern Denmark,    Denmark     (Polarizable embedding and polarizable density embedding)
  Zilvinas Rinkevicius,     KTH Stockholm,                Sweden      (open-shell DFT, ESR)
  Elias Rudberg,            KTH Stockholm,                Sweden      (DFT grid and basis info)
  Torgeir A. Ruden,         University of Oslo,           Norway      (Numerical derivatives in ABACUS)
  Kenneth Ruud,             UiT The Arctic U. of Norway,  Norway      (DALTON; ABACUS magnetic properties and much more)
  Pawel Salek,              KTH Stockholm,                Sweden      (DALTON; DFT code)
  Claire C. M. Samson       University of Karlsruhe       Germany     (Boys localization, r12 integrals in ERI)
  Alfredo Sanchez de Meras, University of Valencia,       Spain       (CC module, Cholesky decomposition)
  Trond Saue,               Paul Sabatier University,     France      (direct Fock matrix construction)
  Stephan P. A. Sauer,      University of Copenhagen,     Denmark     (SOPPA(CCSD), SOPPA prop., AOSOPPA, vibrational g-factors)
  Bernd Schimmelpfennig,    Forschungszentrum Karlsruhe,  Germany     (AMFI module)
  Anna K. Schnack-Petersen, University of Copenhagen,     Denmark     (RPA(D) and HRPA(D) properties in AOSOPPA)
  Kristian Sneskov,         Aarhus University,            Denmark     (Polarizable embedding, QM/MM)
  Arnfinn H. Steindal,      UiT The Arctic U. of Norway,  Norway      (parallel QM/MM, polarizable embedding)
  Casper Steinmann,         Aalborg University,           Denmark     (QFIT, polarizable embedding)
  K. O. Sylvester-Hvid,     University of Copenhagen,     Denmark     (MC-SCRF)
  Peter R. Taylor,          VLSCI/Univ. of Melbourne,     Australia   (Symmetry handling ABACUS, integral transformation)
  Andrew M. Teale,          University of Nottingham,     England     (DFT-AC, DFT-D)
  David P. Tew,             University of Bristol,        England     (CCSD(R12))
  Julien Toulouse,          Sorbonne Univ.,               France      (MC-srDFT)
  Olav Vahtras,             KTH Stockholm,                Sweden      (Triplet response, spin-orbit, ESR, TDDFT, open-shell DFT)
  Lucas Visscher,           Vrije Universiteit Amsterdam, Netherlands (Frozen density embedding)
  David J. Wilson,          La Trobe University,          Australia   (DFT Hessian and DFT magnetizabilities)
  Hans Agren,               KTH Stockholm,                Sweden      (SIRIUS module, RESPONS, MC-SCRF solvation)
 --------------------------------------------------------------------------------

     Date and time (Linux)  : Wed Jan 11 14:15:09 2023
     Host name              : cn027                                   

 * Work memory size             :    64000000 =  488.28 megabytes.

 * Directories for basis set searches:
   1) /gpfs/projects/rjh/adrian/fd_compare/dalton/hf/Ne/dipole
   2) /gpfs/projects/rjh/adrian/dalton/build/basis


Compilation information
-----------------------

 Who compiled             | ahurtado
 Host                     | sn-mem
 System                   | Linux-3.10.0-1160.24.1.el7.x86_64
 CMake generator          | Unix Makefiles
 Processor                | x86_64
 64-bit integers          | OFF
 MPI                      | ON
 Fortran compiler         | /gpfs/software/intel/oneAPI/2021_4/mpi/2021.4.0/bi
                          | n/mpif90
 Fortran compiler version | GNU Fortran (GCC) 11.2.0
 C compiler               | /gpfs/software/intel/oneAPI/2021_4/mpi/2021.4.0/bi
                          | n/mpicc
 C compiler version       | gcc (GCC) 11.2.0
 C++ compiler             | /gpfs/software/intel/oneAPI/2021_4/mpi/2021.4.0/bi
                          | n/mpicxx
 C++ compiler version     | unknown
 BLAS                     | /gpfs/software/intel/oneAPI/2021_4/mkl/2021.4.0/li
                          | b/intel64/libmkl_gf_lp64.so;/gpfs/software/intel/o
                          | neAPI/2021_4/mkl/2021.4.0/lib/intel64/libmkl_seque
                          | ntial.so;/gpfs/software/intel/oneAPI/2021_4/mkl/20
                          | 21.4.0/lib/intel64/libmkl_core.so;/usr/lib64/libpt
                          | hread.so;/usr/lib64/libm.so
 LAPACK                   | /gpfs/software/intel/oneAPI/2021_4/mkl/2021.4.0/li
                          | b/intel64/libmkl_lapack95_lp64.a;/gpfs/software/in
                          | tel/oneAPI/2021_4/mkl/2021.4.0/lib/intel64/libmkl_
                          | gf_lp64.so
 Static linking           | OFF
 Last Git revision        | 66052b3af5ea7225e31178bf9a8b031913c72190
 Git branch               | (HEAD detached at Dalton2020.0)
 Configuration time       | 2023-01-11 13:33:37.731835

 * MPI parallel run using 20 processes.


   Content of the .dal input file
 ----------------------------------

**DALTON INPUT
.RUN RESPONSE
.DIRECT
**WAVE FUNCTIONS
.HF
**RESPONSE
*LINEAR
.DIPLEN
.FREQUENCIES
9
0.0 0.046122125 0.09224425 0.13836637499999999 0.1844885 0.230610625 0.27673274999999997 0.322854875
**END OF DALTON INPUT


   Content of the .mol file
 ----------------------------

BASIS
aug-cc-pCVQZ
blah
blah
Atomtype=1 Angstrom
Charge=10 Atoms=1
Ne_a 0.000000000000 0.000000000000 0.000000000000


       *******************************************************************
       *********** Output from DALTON general input processing ***********
       *******************************************************************

 --------------------------------------------------------------------------------
   Overall default print level:    0
   Print level for DALTON.STAT:    1

    Parallel calculation using MPI
    AO-direct calculation (in sections where implemented)
    HERMIT 1- and 2-electron integral sections will be executed
    "Old" integral transformation used (limited to max 255 basis functions)
    Wave function sections will be executed (SIRIUS module)
    Dynamic molecular response properties section will be executed (RESPONSE module)
 --------------------------------------------------------------------------------


   ****************************************************************************
   *************** Output of molecule and basis set information ***************
   ****************************************************************************


    The two title cards from your ".mol" input:
    ------------------------------------------------------------------------
 1: blah                                                                    
 2: blah                                                                    
    ------------------------------------------------------------------------

  Coordinates are entered in Angstrom and converted to atomic units.
          - Conversion factor : 1 bohr = 0.52917721 A

  Atomic type no.    1
  --------------------
  Nuclear charge:  10.00000
  Number of symmetry independent centers:    1
  Number of basis sets to read;    2
  Basis set file used for this atomic type with Z =  10 :
     "/gpfs/projects/rjh/adrian/dalton/build/basis/aug-cc-pCVQZ"


                      SYMADD: Requested addition of symmetry
                      --------------------------------------

 Symmetry test threshold:  5.00E-06

@   The molecule is centered at center of mass and rotated
@   so principal axes of inertia are along coordinate axes.

 Symmetry class found: D(oo,h)        

 Symmetry Independent Centres             
 ----------------------------
Ne_a  10 :      0.00000000     0.00000000     0.00000000  Isotope  1

 The following symmetry elements were found:   X  Y  Z  


                         SYMGRP: Point group information
                         -------------------------------

@    Full point group is: D(oo,h)        
@    Represented as:      D2h

@  * The irrep name for each symmetry:    1: Ag     2: B3u    3: B2u    4: B1g    5: B1u    6: B2g    7: B3g    8: Au 


   * The point group was generated by:

      Reflection in the yz-plane
      Reflection in the xz-plane
      Reflection in the xy-plane

   * Group multiplication table

        |  E   C2z  C2y  C2x   i   Oxy  Oxz  Oyz
   -----+----------------------------------------
     E  |  E   C2z  C2y  C2x   i   Oxy  Oxz  Oyz
    C2z | C2z   E   C2x  C2y  Oxy   i   Oyz  Oxz
    C2y | C2y  C2x   E   C2z  Oxz  Oyz   i   Oxy
    C2x | C2x  C2y  C2z   E   Oyz  Oxz  Oxy   i 
     i  |  i   Oxy  Oxz  Oyz   E   C2z  C2y  C2x
    Oxy | Oxy   i   Oyz  Oxz  C2z   E   C2x  C2y
    Oxz | Oxz  Oyz   i   Oxy  C2y  C2x   E   C2z
    Oyz | Oyz  Oxz  Oxy   i   C2x  C2y  C2z   E 

   * Character table

        |  E   C2z  C2y  C2x   i   Oxy  Oxz  Oyz
   -----+----------------------------------------
    Ag  |   1    1    1    1    1    1    1    1
    B3u |   1   -1   -1    1   -1    1    1   -1
    B2u |   1   -1    1   -1   -1    1   -1    1
    B1g |   1    1   -1   -1    1    1   -1   -1
    B1u |   1    1   -1   -1   -1   -1    1    1
    B2g |   1   -1    1   -1    1   -1    1   -1
    B3g |   1   -1   -1    1    1   -1   -1    1
    Au  |   1    1    1    1   -1   -1   -1   -1

   * Direct product table

        | Ag   B3u  B2u  B1g  B1u  B2g  B3g  Au 
   -----+----------------------------------------
    Ag  | Ag   B3u  B2u  B1g  B1u  B2g  B3g  Au 
    B3u | B3u  Ag   B1g  B2u  B2g  B1u  Au   B3g
    B2u | B2u  B1g  Ag   B3u  B3g  Au   B1u  B2g
    B1g | B1g  B2u  B3u  Ag   Au   B3g  B2g  B1u
    B1u | B1u  B2g  B3g  Au   Ag   B3u  B2u  B1g
    B2g | B2g  B1u  Au   B3g  B3u  Ag   B1g  B2u
    B3g | B3g  Au   B1u  B2g  B2u  B1g  Ag   B3u
    Au  | Au   B3g  B2g  B1u  B1g  B2u  B3u  Ag 


                                 Isotopic Masses
                                 ---------------

                           Ne_a       19.992439

                       Total mass:    19.992439 amu
                       Natural abundance:  90.480 %

 Center-of-mass coordinates (a.u.):    0.000000    0.000000    0.000000
 Center-of-mass coordinates (Angs):    0.000000    0.000000    0.000000


  Atoms and basis sets
  --------------------

  Number of atom types :    1
  Total number of atoms:    1

  Basis set used is "aug-cc-pCVQZ" from the basis set library.

  label    atoms   charge   prim   cont     basis
  ----------------------------------------------------------------------
  Ne          1   10.0000   122   109      [16s10p6d4f2g|9s8p6d4f2g]                          
  ----------------------------------------------------------------------
  total:      1   10.0000   122   109
  ----------------------------------------------------------------------
  Spherical harmonic basis used.

  Threshold for neglecting AO integrals:  1.00D-12


  Cartesian Coordinates (a.u.)
  ----------------------------

  Total number of coordinates:    3
  Ne_a    :     1  x   0.0000000000    2  y   0.0000000000    3  z   0.0000000000


  Symmetry Coordinates
  --------------------

  Number of coordinates in each symmetry:     0    1    1    0    1    0    0    0

  Symmetry  B3u ( 2)

    1   Ne_a  x    1

  Symmetry  B2u ( 3)

    2   Ne_a  y    2

  Symmetry  B1u ( 5)

    3   Ne_a  z    3


@ This is an atomic calculation.


  Symmetry Orbitals
  -----------------

  Number of orbitals in each symmetry:          27   16   16   10   16   10   10    4


  Symmetry  Ag ( 1)

    1     Ne_a     1s         1
    2     Ne_a     1s         2
    3     Ne_a     1s         3
    4     Ne_a     1s         4
    5     Ne_a     1s         5
    6     Ne_a     1s         6
    7     Ne_a     1s         7
    8     Ne_a     1s         8
    9     Ne_a     1s         9
   10     Ne_a     3d0       36
   11     Ne_a     3d2+      38
   12     Ne_a     3d0       41
   13     Ne_a     3d2+      43
   14     Ne_a     3d0       46
   15     Ne_a     3d2+      48
   16     Ne_a     3d0       51
   17     Ne_a     3d2+      53
   18     Ne_a     3d0       56
   19     Ne_a     3d2+      58
   20     Ne_a     3d0       61
   21     Ne_a     3d2+      63
   22     Ne_a     5g0       96
   23     Ne_a     5g2+      98
   24     Ne_a     5g4+     100
   25     Ne_a     5g0      105
   26     Ne_a     5g2+     107
   27     Ne_a     5g4+     109


  Symmetry  B3u( 2)

   28     Ne_a     2px       10
   29     Ne_a     2px       13
   30     Ne_a     2px       16
   31     Ne_a     2px       19
   32     Ne_a     2px       22
   33     Ne_a     2px       25
   34     Ne_a     2px       28
   35     Ne_a     2px       31
   36     Ne_a     4f1+      68
   37     Ne_a     4f3+      70
   38     Ne_a     4f1+      75
   39     Ne_a     4f3+      77
   40     Ne_a     4f1+      82
   41     Ne_a     4f3+      84
   42     Ne_a     4f1+      89
   43     Ne_a     4f3+      91


  Symmetry  B2u( 3)

   44     Ne_a     2py       11
   45     Ne_a     2py       14
   46     Ne_a     2py       17
   47     Ne_a     2py       20
   48     Ne_a     2py       23
   49     Ne_a     2py       26
   50     Ne_a     2py       29
   51     Ne_a     2py       32
   52     Ne_a     4f3-      64
   53     Ne_a     4f1-      66
   54     Ne_a     4f3-      71
   55     Ne_a     4f1-      73
   56     Ne_a     4f3-      78
   57     Ne_a     4f1-      80
   58     Ne_a     4f3-      85
   59     Ne_a     4f1-      87


  Symmetry  B1g( 4)

   60     Ne_a     3d2-      34
   61     Ne_a     3d2-      39
   62     Ne_a     3d2-      44
   63     Ne_a     3d2-      49
   64     Ne_a     3d2-      54
   65     Ne_a     3d2-      59
   66     Ne_a     5g4-      92
   67     Ne_a     5g2-      94
   68     Ne_a     5g4-     101
   69     Ne_a     5g2-     103


  Symmetry  B1u( 5)

   70     Ne_a     2pz       12
   71     Ne_a     2pz       15
   72     Ne_a     2pz       18
   73     Ne_a     2pz       21
   74     Ne_a     2pz       24
   75     Ne_a     2pz       27
   76     Ne_a     2pz       30
   77     Ne_a     2pz       33
   78     Ne_a     4f0       67
   79     Ne_a     4f2+      69
   80     Ne_a     4f0       74
   81     Ne_a     4f2+      76
   82     Ne_a     4f0       81
   83     Ne_a     4f2+      83
   84     Ne_a     4f0       88
   85     Ne_a     4f2+      90


  Symmetry  B2g( 6)

   86     Ne_a     3d1+      37
   87     Ne_a     3d1+      42
   88     Ne_a     3d1+      47
   89     Ne_a     3d1+      52
   90     Ne_a     3d1+      57
   91     Ne_a     3d1+      62
   92     Ne_a     5g1+      97
   93     Ne_a     5g3+      99
   94     Ne_a     5g1+     106
   95     Ne_a     5g3+     108


  Symmetry  B3g( 7)

   96     Ne_a     3d1-      35
   97     Ne_a     3d1-      40
   98     Ne_a     3d1-      45
   99     Ne_a     3d1-      50
  100     Ne_a     3d1-      55
  101     Ne_a     3d1-      60
  102     Ne_a     5g3-      93
  103     Ne_a     5g1-      95
  104     Ne_a     5g3-     102
  105     Ne_a     5g1-     104


  Symmetry  Au ( 8)

  106     Ne_a     4f2-      65
  107     Ne_a     4f2-      72
  108     Ne_a     4f2-      79
  109     Ne_a     4f2-      86

  Symmetries of electric field:  B3u(2)  B2u(3)  B1u(5)

  Symmetries of magnetic field:  B3g(7)  B2g(6)  B1g(4)


                     .---------------------------------------.
                     | Starting in Integral Section (HERMIT) |
                     `---------------------------------------'



 ***************************************************************************************
 ****************** Output from **INTEGRALS input processing (HERMIT) ******************
 ***************************************************************************************


 - Using defaults, no **INTEGRALS input found

 Default print level:        1

 Calculation of one-electron Hamiltonian integrals.

 Center of mass  (bohr):      0.000000000000      0.000000000000      0.000000000000
 Operator center (bohr):      0.000000000000      0.000000000000      0.000000000000
 Gauge origin    (bohr):      0.000000000000      0.000000000000      0.000000000000
 Dipole origin   (bohr):      0.000000000000      0.000000000000      0.000000000000


     ************************************************************************
     ************************** Output from HERINT **************************
     ************************************************************************



                      Nuclear contribution to dipole moments
                      --------------------------------------

                    All dipole components are zero by symmetry


  Time used in GABGEN     is       0.11 seconds
  Total CPU  time used in HERMIT:   0.18 seconds
  Total wall time used in HERMIT:   0.18 seconds


                        .----------------------------------.
                        | End of Integral Section (HERMIT) |
                        `----------------------------------'



                   .--------------------------------------------.
                   | Starting in Wave Function Section (SIRIUS) |
                   `--------------------------------------------'


 *** Output from Huckel module :

     Using EWMO model:          T
     Using EHT  model:          F
     Number of Huckel orbitals each symmetry:    2    1    1    0    1    0    0    0

 EWMO - Energy Weighted Maximum Overlap - is a Huckel type method,
        which normally is better than Extended Huckel Theory.
 Reference: Linderberg and Ohrn, Propagators in Quantum Chemistry (Wiley, 1973)

 Huckel EWMO eigenvalues for symmetry :  1
          -32.772400      -1.930400

 Huckel EWMO eigenvalues for symmetry :  2
           -0.850400

 Huckel EWMO eigenvalues for symmetry :  3
           -0.850400

 Huckel EWMO eigenvalues for symmetry :  5
           -0.850400

 **********************************************************************
 *SIRIUS* a direct, restricted step, second order MCSCF program       *
 **********************************************************************

 
     Date and time (Linux)  : Wed Jan 11 14:15:09 2023
     Host name              : cn027                                   

 Title lines from ".mol" input file:
     blah                                                                    
     blah                                                                    

 Print level on unit LUPRI =   2 is   0
 Print level on unit LUW4  =   2 is   5

@    Restricted, closed shell Hartree-Fock calculation.

@    Time-dependent Hartree-Fock calculation (random phase approximation).
 Fock matrices are calculated directly and in parallel without use of integrals on disk.

 Initial molecular orbitals are obtained according to
 ".MOSTART EWMO  " input option

     Wave function specification
     ============================
@    Wave function type        --- HF ---
@    Number of closed shell electrons          10
@    Number of electrons in active shells       0
@    Total charge of the molecule               0

@    Spin multiplicity and 2 M_S                1         0
@    Total number of symmetries                 8 (point group: D2h)
@    Reference state symmetry                   1 (irrep name : Ag )

     Orbital specifications
     ======================
@    Abelian symmetry species          All |    1    2    3    4    5    6    7    8
@                                          |  Ag   B3u  B2u  B1g  B1u  B2g  B3g  Au 
                                       --- |  ---  ---  ---  ---  ---  ---  ---  ---
@    Total number of orbitals          109 |   27   16   16   10   16   10   10    4
@    Number of basis functions         109 |   27   16   16   10   16   10   10    4

      ** Automatic occupation of RHF orbitals **

      -- Initial occupation of symmetries is determined from extended Huckel guess.           
      -- Initial occupation of symmetries is :
@    Occupied SCF orbitals               5 |    2    1    1    0    1    0    0    0

     Maximum number of Fock   iterations      0
     Maximum number of DIIS   iterations     60
     Maximum number of QC-SCF iterations     60
     Threshold for SCF convergence     1.00D-05


 ***********************************************
 ***** DIIS acceleration of SCF iterations *****
 ***********************************************

 C1-DIIS algorithm; max error vectors =    8

 Automatic occupation of symmetries with  10 electrons.

 Iter     Total energy    Error norm  Delta(E)    SCF occupation
 -----------------------------------------------------------------------------
   1  Screening settings (-IFTHRS, JTDIIS, DIFDEN, times)   -7    1    T  5.53D-02  5.60D-02
@  1  -128.536811156       4.39D+00  -1.29D+02     2   1   1   0   1   0   0   0
      Virial theorem: -V/T =      2.000037
@    MULPOP   Ne_a    0.00; 
   1  Level shift: doubly occupied orbital energies shifted by -2.00D-01
 -----------------------------------------------------------------------------
   2  Screening settings (-IFTHRS, JTDIIS, DIFDEN, times)   -7    2    T  3.18D-02  3.20D-02
@  2  -128.543763172       5.84D-02  -6.95D-03     2   1   1   0   1   0   0   0
      Virial theorem: -V/T =      1.999810
@    MULPOP   Ne_a   -0.00; 
   2  Level shift: doubly occupied orbital energies shifted by -5.00D-02
 -----------------------------------------------------------------------------
   3  Screening settings (-IFTHRS, JTDIIS, DIFDEN, times)  -11    3    F  3.40D-02  3.40D-02
@  3  -128.543850329       7.84D-03  -8.72D-05     2   1   1   0   1   0   0   0
      Virial theorem: -V/T =      2.000137
@    MULPOP   Ne_a   -0.00; 
   3  Level shift: doubly occupied orbital energies shifted by -1.25D-02
 -----------------------------------------------------------------------------
   4  Screening settings (-IFTHRS, JTDIIS, DIFDEN, times)  -11    4    T  3.31D-02  3.30D-02
@  4  -128.543852605       4.02D-03  -2.28D-06     2   1   1   0   1   0   0   0
      Virial theorem: -V/T =      1.999989
@    MULPOP   Ne_a   -0.00; 
   4  Level shift: doubly occupied orbital energies shifted by -1.25D-02
 -----------------------------------------------------------------------------
   5  Screening settings (-IFTHRS, JTDIIS, DIFDEN, times)  -11    5    T  3.33D-02  3.30D-02
@  5  -128.543852928       1.37D-04  -3.23D-07     2   1   1   0   1   0   0   0
      Virial theorem: -V/T =      2.000044
@    MULPOP   Ne_a   -0.00; 
 -----------------------------------------------------------------------------
   6  Screening settings (-IFTHRS, JTDIIS, DIFDEN, times)  -11    6    T  3.16D-02  3.10D-02
@  6  -128.543852929       2.45D-05  -1.61D-09     2   1   1   0   1   0   0   0
      Virial theorem: -V/T =      2.000043
@    MULPOP   Ne_a   -0.00; 
 -----------------------------------------------------------------------------
   7  Screening settings (-IFTHRS, JTDIIS, DIFDEN, times)  -11    7    T  3.40D-02  3.40D-02
@  7  -128.543852929       1.72D-06  -3.08D-11     2   1   1   0   1   0   0   0

@ *** DIIS converged in   7 iterations !
@     Converged SCF energy, gradient:   -128.543852929439    1.72D-06
    - total time used in SIRFCK :              0.00 seconds


 *** SCF orbital energy analysis ***

 Only the 20 lowest virtual orbital energies printed in each symmetry.

 Number of electrons :   10
 Orbital occupations :    2    1    1    0    1    0    0    0

 Sym       Hartree-Fock orbital energies

1 Ag    -32.77417646    -1.93119841     0.21004387     0.82145095     0.82145095
          1.37450940     2.56782208     2.56782208     5.95312037     6.14049967
          6.14049967     6.14049967     7.20835354     7.20835354    17.27544031
         17.27544031    17.27544031    21.21244839    21.21244839    25.70542360
         75.66358908    75.66358908

2 B3u    -0.85066265     0.20639663     1.04587034     2.69554314     2.69554314
          4.07704701     7.46639790     7.46639790    14.30761481    20.82156041
         20.82156041    50.78604183   112.89679719   112.89679719   177.89445668
        604.33204407

3 B2u    -0.85066265     0.20639663     1.04587034     2.69554314     2.69554314
          4.07704701     7.46639790     7.46639790    14.30761481    20.82156041
         20.82156041    50.78604183   112.89679719   112.89679719   177.89445668
        604.33204407

4 B1g     0.82145095     2.56782208     6.14049967     6.14049967     7.20835354
         17.27544031    17.27544031    21.21244839    75.66358908   311.42570510

5 B1u    -0.85066265     0.20639663     1.04587034     2.69554314     2.69554314
          4.07704701     7.46639790     7.46639790    14.30761481    20.82156041
         20.82156041    50.78604183   112.89679719   112.89679719   177.89445668
        604.33204407

6 B2g     0.82145095     2.56782208     6.14049967     6.14049967     7.20835354
         17.27544031    17.27544031    21.21244839    75.66358908   311.42570510

7 B3g     0.82145095     2.56782208     6.14049967     6.14049967     7.20835354
         17.27544031    17.27544031    21.21244839    75.66358908   311.42570510

8 Au      2.69554314     7.46639790    20.82156041   112.89679719

    E(LUMO) :     0.20639663 au (symmetry 5)
  - E(HOMO) :    -0.85066265 au (symmetry 2)
  ------------------------------------------
    gap     :     1.05705928 au

 --- Writing SIRIFC interface file

 CPU and wall time for SCF :       0.262       0.265


                       .-----------------------------------.
                       | --- Final results from SIRIUS --- |
                       `-----------------------------------'


@    Spin multiplicity:           1
@    Spatial symmetry:            1 ( irrep  Ag  in D2h )
@    Total charge of molecule:    0

@    Final HF energy:            -128.543852929439                 
@    Nuclear repulsion:             0.000000000000
@    Electronic energy:          -128.543852929439

@    Final gradient norm:           0.000001724906

 
     Date and time (Linux)  : Wed Jan 11 14:15:10 2023
     Host name              : cn027                                   

File label for MO orbitals:  11Jan23   FOCKDIIS

 (Only coefficients > 0.0100 are printed.)

 Molecular orbitals for symmetry species 1  (Ag )
 ------------------------------------------------

    Orbital         1        2        3        4        5        6        7
   1 Ne_a:1s     1.0004  -0.0002  -0.0919   0.0000  -0.0000   0.4141  -0.0000
   2 Ne_a:1s     0.0021   0.9999  -0.6168  -0.0000   0.0000   1.2085  -0.0000
   3 Ne_a:1s    -0.0004  -0.0006   0.0070  -0.0000   0.0000  -0.0383  -0.0000
   4 Ne_a:1s    -0.0017   0.0026   0.5142   0.0000  -0.0000  -3.1483   0.0000
   5 Ne_a:1s    -0.0001  -0.0043  -0.8716   0.0000  -0.0000   2.9086   0.0000
   6 Ne_a:1s     0.0003   0.0002  -0.0349   0.0000  -0.0000   0.1689  -0.0000
   9 Ne_a:1s    -0.0003   0.0033   1.5888  -0.0000   0.0000  -1.2549   0.0000
  14 Ne_a:3d0    0.0000  -0.0000   0.0000   0.0099  -0.0000   0.0000   0.0590
  16 Ne_a:3d0   -0.0000   0.0000   0.0000  -0.0766  -0.0000   0.0000  -0.0944
  17 Ne_a:3d2+  -0.0000  -0.0000   0.0000   0.0000  -0.0766   0.0000   0.0000
  18 Ne_a:3d0    0.0000   0.0000  -0.0000   0.2123   0.0000  -0.0000   1.3745
  19 Ne_a:3d2+   0.0000   0.0000  -0.0000  -0.0000   0.2123  -0.0000  -0.0000
  20 Ne_a:3d0   -0.0000  -0.0000   0.0000  -1.1164  -0.0000   0.0000  -0.7665
  21 Ne_a:3d2+  -0.0000  -0.0000   0.0000   0.0000  -1.1164   0.0000   0.0000

    Orbital         8        9       10       11       12
   1 Ne_a:1s     0.0000  -2.1567   0.0000  -0.0000  -0.0000
   2 Ne_a:1s     0.0000 -10.5004  -0.0000   0.0000   0.0000
   3 Ne_a:1s    -0.0000  -0.4040  -0.0000   0.0000   0.0000
   4 Ne_a:1s     0.0000  10.4796   0.0000  -0.0000  -0.0000
   5 Ne_a:1s     0.0000   0.5489   0.0000  -0.0000  -0.0000
   6 Ne_a:1s     0.0000  -0.7842   0.0000  -0.0000  -0.0000
   7 Ne_a:1s     0.0000  -0.0275   0.0000  -0.0000  -0.0000
   8 Ne_a:1s     0.0000  -0.0380  -0.0000   0.0000   0.0000
   9 Ne_a:1s     0.0000   0.6145   0.0000  -0.0000  -0.0000
  15 Ne_a:3d2+   0.0590  -0.0000  -0.0000   0.0000   0.0000
  17 Ne_a:3d2+  -0.0944   0.0000   0.0000  -0.0000  -0.0000
  19 Ne_a:3d2+   1.3745  -0.0000  -0.0000   0.0000   0.0000
  21 Ne_a:3d2+  -0.7665   0.0000   0.0000  -0.0000  -0.0000
  22 Ne_a:5g0   -0.0000   0.0000   0.0000  -0.0000  -0.1857
  23 Ne_a:5g2+   0.0000  -0.0000  -0.0000  -0.1857   0.0000
  24 Ne_a:5g4+  -0.0000   0.0000  -0.1857  -0.0000  -0.0000
  25 Ne_a:5g0   -0.0000   0.0000   0.0000  -0.0000   1.0982
  26 Ne_a:5g2+  -0.0000   0.0000   0.0000   1.0982  -0.0000
  27 Ne_a:5g4+   0.0000  -0.0000   1.0982   0.0000   0.0000

 Molecular orbitals for symmetry species 2  (B3u)
 ------------------------------------------------

    Orbital         1        2        3        4        5        6        7
   1 Ne_a:2px    0.9991   0.1530  -0.8078  -0.0000   0.0000   0.4868   0.0000
   2 Ne_a:2px   -0.0001   0.0402   0.2011   0.0000  -0.0000   1.0874  -0.0000
   3 Ne_a:2px    0.0025  -0.0658  -0.4425   0.0000  -0.0000  -2.1822  -0.0000
   4 Ne_a:2px   -0.0066   0.3648   1.9258   0.0000  -0.0000   0.9717  -0.0000
   5 Ne_a:2px    0.0003   0.0034   0.0176   0.0000  -0.0000   0.0753  -0.0000
   8 Ne_a:2px    0.0099  -1.2097  -0.7612   0.0000  -0.0000  -0.3403  -0.0000
  11 Ne_a:4f1+   0.0000   0.0000  -0.0000   0.0496   0.0000   0.0000  -0.0972
  12 Ne_a:4f3+  -0.0000  -0.0000   0.0000   0.0000   0.0496  -0.0000  -0.0000
  13 Ne_a:4f1+  -0.0000  -0.0000   0.0000  -0.3103  -0.0000  -0.0000   1.4612
  14 Ne_a:4f3+   0.0000   0.0000  -0.0000  -0.0000  -0.3103   0.0000   0.0000
  15 Ne_a:4f1+   0.0000   0.0000  -0.0000   1.1922   0.0000   0.0000  -0.8242
  16 Ne_a:4f3+  -0.0000  -0.0000   0.0000   0.0000   1.1922  -0.0000  -0.0000

    Orbital         8        9       10       11
   1 Ne_a:2px   -0.0000   9.1412  -0.0000  -0.0000
   2 Ne_a:2px    0.0000  -5.3839   0.0000   0.0000
   3 Ne_a:2px    0.0000  -2.7886   0.0000   0.0000
   4 Ne_a:2px    0.0000  -2.7143   0.0000   0.0000
   5 Ne_a:2px    0.0000  -0.4308   0.0000   0.0000
   7 Ne_a:2px    0.0000  -0.0170   0.0000   0.0000
   8 Ne_a:2px    0.0000   0.1542  -0.0000  -0.0000
  11 Ne_a:4f1+  -0.0000   0.0000   1.2295   0.0000
  12 Ne_a:4f3+  -0.0972  -0.0000   0.0000  -1.2295
  13 Ne_a:4f1+   0.0000  -0.0000  -0.8558  -0.0000
  14 Ne_a:4f3+   1.4612   0.0000  -0.0000   0.8558
  15 Ne_a:4f1+  -0.0000   0.0000   0.3787   0.0000
  16 Ne_a:4f3+  -0.8242  -0.0000   0.0000  -0.3787

 Molecular orbitals for symmetry species 3  (B2u)
 ------------------------------------------------

    Orbital         1        2        3        4        5        6        7
   1 Ne_a:2py    0.9991   0.1530  -0.8078  -0.0000  -0.0000   0.4868   0.0000
   2 Ne_a:2py   -0.0001   0.0402   0.2011   0.0000   0.0000   1.0874  -0.0000
   3 Ne_a:2py    0.0025  -0.0658  -0.4425   0.0000   0.0000  -2.1822  -0.0000
   4 Ne_a:2py   -0.0066   0.3648   1.9258   0.0000   0.0000   0.9717  -0.0000
   5 Ne_a:2py    0.0003   0.0034   0.0176   0.0000   0.0000   0.0753  -0.0000
   8 Ne_a:2py    0.0099  -1.2097  -0.7612   0.0000   0.0000  -0.3403  -0.0000
  11 Ne_a:4f3-   0.0000   0.0000  -0.0000  -0.0000   0.0496   0.0000   0.0000
  12 Ne_a:4f1-   0.0000   0.0000  -0.0000   0.0496  -0.0000   0.0000  -0.0972
  13 Ne_a:4f3-  -0.0000  -0.0000   0.0000   0.0000  -0.3103  -0.0000  -0.0000
  14 Ne_a:4f1-  -0.0000  -0.0000   0.0000  -0.3103   0.0000  -0.0000   1.4612
  15 Ne_a:4f3-   0.0000   0.0000  -0.0000  -0.0000   1.1922   0.0000   0.0000
  16 Ne_a:4f1-   0.0000   0.0000  -0.0000   1.1922  -0.0000   0.0000  -0.8242

    Orbital         8        9       10       11
   1 Ne_a:2py    0.0000   9.1412   0.0000   0.0000
   2 Ne_a:2py   -0.0000  -5.3839  -0.0000  -0.0000
   3 Ne_a:2py   -0.0000  -2.7886  -0.0000  -0.0000
   4 Ne_a:2py   -0.0000  -2.7143  -0.0000  -0.0000
   5 Ne_a:2py   -0.0000  -0.4308  -0.0000  -0.0000
   7 Ne_a:2py   -0.0000  -0.0170  -0.0000  -0.0000
   8 Ne_a:2py   -0.0000   0.1542   0.0000   0.0000
  11 Ne_a:4f3-  -0.0972   0.0000   0.0000  -1.2295
  12 Ne_a:4f1-   0.0000   0.0000  -1.2295   0.0000
  13 Ne_a:4f3-   1.4612  -0.0000  -0.0000   0.8558
  14 Ne_a:4f1-  -0.0000  -0.0000   0.8558   0.0000
  15 Ne_a:4f3-  -0.8242   0.0000   0.0000  -0.3787
  16 Ne_a:4f1-   0.0000   0.0000  -0.3787  -0.0000

 Molecular orbitals for symmetry species 4  (B1g)
 ------------------------------------------------

    Orbital         1        2        3        4        5        6        7
   2 Ne_a:3d2-  -0.0023  -0.0037   0.0000   0.0000   0.0291   0.0000   0.0000
   3 Ne_a:3d2-   0.0099   0.0590   0.0000   0.0000  -0.0686   0.0000   0.0000
   4 Ne_a:3d2-  -0.0766  -0.0944   0.0000   0.0000   1.3956   0.0000   0.0000
   5 Ne_a:3d2-   0.2123   1.3745   0.0000   0.0000  -1.1109   0.0000   0.0000
   6 Ne_a:3d2-  -1.1164  -0.7665   0.0000   0.0000   0.4116   0.0000   0.0000
   7 Ne_a:5g4-   0.0000   0.0000  -0.1857   0.0000   0.0000  -1.2240   0.0000
   8 Ne_a:5g2-   0.0000   0.0000   0.0000  -0.1857   0.0000   0.0000  -1.2240
   9 Ne_a:5g4-   0.0000   0.0000   1.0982   0.0000   0.0000   0.5716   0.0000
  10 Ne_a:5g2-   0.0000   0.0000   0.0000   1.0982   0.0000   0.0000   0.5716

    Orbital         8        9       10
   1 Ne_a:3d2-  -0.0131  -0.0685  -1.1705
   2 Ne_a:3d2-   0.0518   1.2522   0.6548
   3 Ne_a:3d2-  -1.3981  -0.8696  -0.3092
   4 Ne_a:3d2-   1.1607   0.4771   0.1656
   5 Ne_a:3d2-  -0.5610  -0.2193  -0.0778
   6 Ne_a:3d2-   0.1960   0.0785   0.0283

 Molecular orbitals for symmetry species 5  (B1u)
 ------------------------------------------------

    Orbital         1        2        3        4        5        6        7
   1 Ne_a:2pz    0.9991   0.1530  -0.8078  -0.0000   0.0000   0.4868   0.0000
   2 Ne_a:2pz   -0.0001   0.0402   0.2011   0.0000  -0.0000   1.0874  -0.0000
   3 Ne_a:2pz    0.0025  -0.0658  -0.4425   0.0000  -0.0000  -2.1822  -0.0000
   4 Ne_a:2pz   -0.0066   0.3648   1.9258   0.0000  -0.0000   0.9717  -0.0000
   5 Ne_a:2pz    0.0003   0.0034   0.0176   0.0000  -0.0000   0.0753  -0.0000
   8 Ne_a:2pz    0.0099  -1.2097  -0.7612   0.0000   0.0000  -0.3403  -0.0000
  11 Ne_a:4f0   -0.0000  -0.0000   0.0000   0.0000   0.0496  -0.0000  -0.0000
  12 Ne_a:4f2+   0.0000   0.0000  -0.0000   0.0496   0.0000   0.0000  -0.0972
  13 Ne_a:4f0    0.0000   0.0000  -0.0000  -0.0000  -0.3103   0.0000   0.0000
  14 Ne_a:4f2+  -0.0000  -0.0000   0.0000  -0.3103  -0.0000  -0.0000   1.4612
  15 Ne_a:4f0   -0.0000  -0.0000   0.0000  -0.0000   1.1922  -0.0000  -0.0000
  16 Ne_a:4f2+   0.0000   0.0000  -0.0000   1.1922   0.0000   0.0000  -0.8242

    Orbital         8        9       10       11
   1 Ne_a:2pz    0.0000   9.1412   0.0000   0.0000
   2 Ne_a:2pz   -0.0000  -5.3839  -0.0000  -0.0000
   3 Ne_a:2pz   -0.0000  -2.7886  -0.0000  -0.0000
   4 Ne_a:2pz   -0.0000  -2.7143  -0.0000  -0.0000
   5 Ne_a:2pz   -0.0000  -0.4308  -0.0000  -0.0000
   7 Ne_a:2pz   -0.0000  -0.0170  -0.0000  -0.0000
   8 Ne_a:2pz    0.0000   0.1542   0.0000  -0.0000
  11 Ne_a:4f0   -0.0972  -0.0000   0.0000   1.2295
  12 Ne_a:4f2+   0.0000   0.0000  -1.2295   0.0000
  13 Ne_a:4f0    1.4612   0.0000  -0.0000  -0.8558
  14 Ne_a:4f2+  -0.0000  -0.0000   0.8558  -0.0000
  15 Ne_a:4f0   -0.8242  -0.0000   0.0000   0.3787
  16 Ne_a:4f2+   0.0000   0.0000  -0.3787   0.0000

 Molecular orbitals for symmetry species 6  (B2g)
 ------------------------------------------------

    Orbital         1        2        3        4        5        6        7
   2 Ne_a:3d1+  -0.0023  -0.0037   0.0000   0.0000   0.0291   0.0000   0.0000
   3 Ne_a:3d1+   0.0099   0.0590   0.0000   0.0000  -0.0686   0.0000   0.0000
   4 Ne_a:3d1+  -0.0766  -0.0944   0.0000   0.0000   1.3956   0.0000   0.0000
   5 Ne_a:3d1+   0.2123   1.3745   0.0000   0.0000  -1.1109   0.0000   0.0000
   6 Ne_a:3d1+  -1.1164  -0.7665   0.0000   0.0000   0.4116   0.0000   0.0000
   7 Ne_a:5g1+   0.0000   0.0000  -0.1857   0.0000   0.0000  -1.2240   0.0000
   8 Ne_a:5g3+   0.0000   0.0000   0.0000  -0.1857   0.0000   0.0000  -1.2240
   9 Ne_a:5g1+   0.0000   0.0000   1.0982   0.0000   0.0000   0.5716   0.0000
  10 Ne_a:5g3+   0.0000   0.0000   0.0000   1.0982   0.0000   0.0000   0.5716

    Orbital         8        9       10
   1 Ne_a:3d1+  -0.0131  -0.0685  -1.1705
   2 Ne_a:3d1+   0.0518   1.2522   0.6548
   3 Ne_a:3d1+  -1.3981  -0.8696  -0.3092
   4 Ne_a:3d1+   1.1607   0.4771   0.1656
   5 Ne_a:3d1+  -0.5610  -0.2193  -0.0778
   6 Ne_a:3d1+   0.1960   0.0785   0.0283

 Molecular orbitals for symmetry species 7  (B3g)
 ------------------------------------------------

    Orbital         1        2        3        4        5        6        7
   2 Ne_a:3d1-  -0.0023  -0.0037   0.0000   0.0000   0.0291   0.0000   0.0000
   3 Ne_a:3d1-   0.0099   0.0590   0.0000   0.0000  -0.0686   0.0000   0.0000
   4 Ne_a:3d1-  -0.0766  -0.0944   0.0000   0.0000   1.3956   0.0000   0.0000
   5 Ne_a:3d1-   0.2123   1.3745   0.0000   0.0000  -1.1109   0.0000   0.0000
   6 Ne_a:3d1-  -1.1164  -0.7665   0.0000   0.0000   0.4116   0.0000   0.0000
   7 Ne_a:5g3-   0.0000   0.0000   0.0000  -0.1857   0.0000   0.0000  -1.2240
   8 Ne_a:5g1-   0.0000   0.0000  -0.1857   0.0000   0.0000  -1.2240   0.0000
   9 Ne_a:5g3-   0.0000   0.0000   0.0000   1.0982   0.0000   0.0000   0.5716
  10 Ne_a:5g1-   0.0000   0.0000   1.0982   0.0000   0.0000   0.5716   0.0000

    Orbital         8        9       10
   1 Ne_a:3d1-  -0.0131  -0.0685  -1.1705
   2 Ne_a:3d1-   0.0518   1.2522   0.6548
   3 Ne_a:3d1-  -1.3981  -0.8696  -0.3092
   4 Ne_a:3d1-   1.1607   0.4771   0.1656
   5 Ne_a:3d1-  -0.5610  -0.2193  -0.0778
   6 Ne_a:3d1-   0.1960   0.0785   0.0283

 Molecular orbitals for symmetry species 8  (Au )
 ------------------------------------------------

    Orbital         1        2        3        4
   1 Ne_a:4f2-  -0.0014   0.0047   0.0087   1.0241
   2 Ne_a:4f2-   0.0496  -0.0972  -1.2295  -0.2589
   3 Ne_a:4f2-  -0.3103   1.4612   0.8558   0.1568
   4 Ne_a:4f2-   1.1922  -0.8242  -0.3787  -0.0727

  Total CPU  time used in SIRIUS :   0.27 seconds
  Total wall time used in SIRIUS :   0.28 seconds

 
     Date and time (Linux)  : Wed Jan 11 14:15:10 2023
     Host name              : cn027                                   


                     .---------------------------------------.
                     | End of Wave Function Section (SIRIUS) |
                     `---------------------------------------'



                 .------------------------------------------------.
                 | Starting in Dynamic Property Section (RESPONS) |
                 `------------------------------------------------'


 ----------------------------------------------------------------------------------------
  RESPONSE  -  an MCSCF, MC-srDFT, DFT, SOPPA and SOPPA-srDFT response property program
 ----------------------------------------------------------------------------------------


 -------- OUTPUT FROM RESPONSE INPUT PROCESSING --------




 Linear Response calculation
 ---------------------------

 Print level                                    : IPRLR  =   2
 Maximum number of iterations                   : MAXITL =  60
 Threshold for relative convergence             : THCLR  = 1.000D-03
 Maximum iterations in optimal orbital algorithm: MAXITO =   5

  9 B-frequencies  0.000000D+00  4.612212D-02  9.224425D-02  1.383664D-01  1.844885D-01
  2.306106D-01  2.767327D-01  3.228549D-01  3.689770D-01

    1 second order properties calculated with symmetry no.    2 and labels:

          XDIPLEN 

    1 second order properties calculated with symmetry no.    3 and labels:

          YDIPLEN 

    1 second order properties calculated with symmetry no.    5 and labels:

          ZDIPLEN 


   SCF energy         :     -128.543852929439396
 -- inactive part     :     -128.543852929439396
 -- nuclear repulsion :        0.000000000000000


                     ***************************************
                     *** RHF response calculation (TDHF) ***
                     ***************************************

 ----------------------------------------------------------------
 ----- Linear response calculation
 ----- Symmetry of excitation/property operator(s)    2  ( B3u)
 ----------------------------------------------------------------

 Number of excitations of this symmetry            0
 Number of response properties of this symmetry    1
 Number of C6/C8 properties of this symmetry       0


 Perturbation symmetry.     KSYMOP:           2
 Perturbation spin symmetry.TRPLET:           F
 Orbital variables.         KZWOPT:          75
 Configuration variables.   KZCONF:           0
 Total number of variables. KZVAR :          75


 RSPLR -- linear response calculation for symmetry 2  ( B3u)
 RSPLR -- operator label : XDIPLEN 
 RSPLR -- operator spin  :   0
 RSPLR -- frequencies    :     0.000000  0.046122  0.092244  0.138366  0.184488
                               0.230611  0.276733  0.322855  0.368977



 ---  SOLVING SETS OF LINEAR EQUATIONS FOR LINEAR RESPONSE PROPERTIES ---

 Operator symmetry = 2  ( B3u); triplet =   F

RSPORT:    1 out of    9 new trial vectors linear dependent

 ** RSPCTL MICROITERATION NUMBER    1

       No.  Residual tot.,    conf., and orb.    Bnorm      Frequency 
      ----------------------------------------------------------------
         1    3.54305D-01  0.00D+00  3.54D-01  9.47D-01    0.00000D+00
         2    3.54791D-01  0.00D+00  3.55D-01  9.50D-01    4.61221D-02
         3    3.56266D-01  0.00D+00  3.56D-01  9.60D-01    9.22442D-02
         4    3.58794D-01  0.00D+00  3.59D-01  9.78D-01    1.38366D-01
         5    3.62485D-01  0.00D+00  3.62D-01  1.00D+00    1.84488D-01
         6    3.67519D-01  0.00D+00  3.68D-01  1.04D+00    2.30611D-01
         7    3.74174D-01  0.00D+00  3.74D-01  1.09D+00    2.76733D-01
         8    3.82877D-01  0.00D+00  3.83D-01  1.15D+00    3.22855D-01
         9    3.94313D-01  0.00D+00  3.94D-01  1.23D+00    3.68977D-01
RSPORT:    1 out of    9 new trial vectors linear dependent

 ** RSPCTL MICROITERATION NUMBER    2

       No.  Residual tot.,    conf., and orb.    Bnorm      Frequency 
      ----------------------------------------------------------------
         1    8.79560D-03  0.00D+00  8.80D-03  9.51D-01    0.00000D+00
         2    8.80651D-03  0.00D+00  8.81D-03  9.55D-01    4.61221D-02
         3    8.83950D-03  0.00D+00  8.84D-03  9.65D-01    9.22442D-02
         4    8.89537D-03  0.00D+00  8.90D-03  9.83D-01    1.38366D-01
         5    8.97553D-03  0.00D+00  8.98D-03  1.01D+00    1.84488D-01
         6    9.08210D-03  0.00D+00  9.08D-03  1.04D+00    2.30611D-01
         7    9.21821D-03  0.00D+00  9.22D-03  1.09D+00    2.76733D-01
         8    9.38832D-03  0.00D+00  9.39D-03  1.15D+00    3.22855D-01
         9    9.59904D-03  0.00D+00  9.60D-03  1.24D+00    3.68977D-01
RSPORT:    1 out of    9 new trial vectors linear dependent

 ** RSPCTL MICROITERATION NUMBER    3

       No.  Residual tot.,    conf., and orb.    Bnorm      Frequency 
      ----------------------------------------------------------------
         1    2.54522D-04  0.00D+00  2.55D-04  9.51D-01    0.00000D+00
         2    2.55111D-04  0.00D+00  2.55D-04  9.55D-01    4.61221D-02
         3    2.56888D-04  0.00D+00  2.57D-04  9.65D-01    9.22442D-02
         4    2.59897D-04  0.00D+00  2.60D-04  9.83D-01    1.38366D-01
         5    2.64210D-04  0.00D+00  2.64D-04  1.01D+00    1.84488D-01
         6    2.69948D-04  0.00D+00  2.70D-04  1.04D+00    2.30611D-01
         7    2.77296D-04  0.00D+00  2.77D-04  1.09D+00    2.76733D-01
         8    2.86538D-04  0.00D+00  2.87D-04  1.15D+00    3.22855D-01
         9    2.98128D-04  0.00D+00  2.98D-04  1.24D+00    3.68977D-01

 *** THE REQUESTED    9 SOLUTION VECTORS CONVERGED

 Convergence of RSP solution vectors, threshold = 1.00D-03
 ---------------------------------------------------------------
 (dimension of paired reduced space:   48)
 RSP solution vector no.    1; norm of residual   2.68D-04
 RSP solution vector no.    2; norm of residual   2.67D-04
 RSP solution vector no.    3; norm of residual   2.66D-04
 RSP solution vector no.    4; norm of residual   2.64D-04
 RSP solution vector no.    5; norm of residual   2.62D-04
 RSP solution vector no.    6; norm of residual   2.58D-04
 RSP solution vector no.    7; norm of residual   2.54D-04
 RSP solution vector no.    8; norm of residual   2.48D-04
 RSP solution vector no.    9; norm of residual   2.41D-04

 *** RSPCTL MICROITERATIONS CONVERGED


           Final output of second order properties from linear response
           ------------------------------------------------------------


@ Spin symmetry of operators: singlet

 Note that minus the linear response function: - << A; B >>(omega) is printed.
 The results are of quadratic accuracy using Sellers formula.

@ FREQUENCY INDEPENDENT SECOND ORDER PROPERTIES

@ -<< XDIPLEN  ; XDIPLEN  >> =  2.329380676760E+00

@ FREQUENCY DEPENDENT SECOND ORDER PROPERTIES WITH FREQUENCY :

@    a.u.:  4.6122125D-02
@    cm-1:  1.0122636D+04
@    eV  :  1.2550469D+00
@  kJ/mol:  1.2109362D+02
@    nm  :  9.8788495D+02

@ -<< XDIPLEN  ; XDIPLEN  >> =  2.333365791911E+00

@ FREQUENCY DEPENDENT SECOND ORDER PROPERTIES WITH FREQUENCY :

@    a.u.:  9.2244250D-02
@    cm-1:  2.0245273D+04
@    eV  :  2.5100937D+00
@  kJ/mol:  2.4218724D+02
@    nm  :  4.9394247D+02

@ -<< XDIPLEN  ; XDIPLEN  >> =  2.345456339613E+00

@ FREQUENCY DEPENDENT SECOND ORDER PROPERTIES WITH FREQUENCY :

@    a.u.:  1.3836637D-01
@    cm-1:  3.0367909D+04
@    eV  :  3.7651406D+00
@  kJ/mol:  3.6328086D+02
@    nm  :  3.2929498D+02

@ -<< XDIPLEN  ; XDIPLEN  >> =  2.366072827016E+00

@ FREQUENCY DEPENDENT SECOND ORDER PROPERTIES WITH FREQUENCY :

@    a.u.:  1.8448850D-01
@    cm-1:  4.0490545D+04
@    eV  :  5.0201875D+00
@  kJ/mol:  4.8437448D+02
@    nm  :  2.4697124D+02

@ -<< XDIPLEN  ; XDIPLEN  >> =  2.395969239422E+00

@ FREQUENCY DEPENDENT SECOND ORDER PROPERTIES WITH FREQUENCY :

@    a.u.:  2.3061063D-01
@    cm-1:  5.0613181D+04
@    eV  :  6.2752343D+00
@  kJ/mol:  6.0546810D+02
@    nm  :  1.9757699D+02

@ -<< XDIPLEN  ; XDIPLEN  >> =  2.436326298697E+00

@ FREQUENCY DEPENDENT SECOND ORDER PROPERTIES WITH FREQUENCY :

@    a.u.:  2.7673275D-01
@    cm-1:  6.0735818D+04
@    eV  :  7.5302812D+00
@  kJ/mol:  7.2656172D+02
@    nm  :  1.6464749D+02

@ -<< XDIPLEN  ; XDIPLEN  >> =  2.488915023061E+00

@ FREQUENCY DEPENDENT SECOND ORDER PROPERTIES WITH FREQUENCY :

@    a.u.:  3.2285487D-01
@    cm-1:  7.0858454D+04
@    eV  :  8.7853280D+00
@  kJ/mol:  8.4765534D+02
@    nm  :  1.4112642D+02

@ -<< XDIPLEN  ; XDIPLEN  >> =  2.556381372374E+00

@ FREQUENCY DEPENDENT SECOND ORDER PROPERTIES WITH FREQUENCY :

@    a.u.:  3.6897700D-01
@    cm-1:  8.0981090D+04
@    eV  :  1.0040375D+01
@  kJ/mol:  9.6874896D+02
@    nm  :  1.2348562D+02

@ -<< XDIPLEN  ; XDIPLEN  >> =  2.642757077286E+00


 Time used in linear response calculation is      0.56 CPU seconds for symmetry 2
 ----------------------------------------------------------------
 ----- Linear response calculation
 ----- Symmetry of excitation/property operator(s)    3  ( B2u)
 ----------------------------------------------------------------

 Number of excitations of this symmetry            0
 Number of response properties of this symmetry    1
 Number of C6/C8 properties of this symmetry       0


 Perturbation symmetry.     KSYMOP:           3
 Perturbation spin symmetry.TRPLET:           F
 Orbital variables.         KZWOPT:          75
 Configuration variables.   KZCONF:           0
 Total number of variables. KZVAR :          75


 RSPLR -- linear response calculation for symmetry 3  ( B2u)
 RSPLR -- operator label : YDIPLEN 
 RSPLR -- operator spin  :   0
 RSPLR -- frequencies    :     0.000000  0.046122  0.092244  0.138366  0.184488
                               0.230611  0.276733  0.322855  0.368977



 ---  SOLVING SETS OF LINEAR EQUATIONS FOR LINEAR RESPONSE PROPERTIES ---

 Operator symmetry = 3  ( B2u); triplet =   F

RSPORT:    1 out of    9 new trial vectors linear dependent

 ** RSPCTL MICROITERATION NUMBER    1

       No.  Residual tot.,    conf., and orb.    Bnorm      Frequency 
      ----------------------------------------------------------------
         1    2.96551D-01  0.00D+00  2.97D-01  9.47D-01    0.00000D+00
         2    2.96860D-01  0.00D+00  2.97D-01  9.50D-01    4.61221D-02
         3    2.97799D-01  0.00D+00  2.98D-01  9.60D-01    9.22442D-02
         4    2.99401D-01  0.00D+00  2.99D-01  9.78D-01    1.38366D-01
         5    3.01724D-01  0.00D+00  3.02D-01  1.00D+00    1.84488D-01
         6    3.04864D-01  0.00D+00  3.05D-01  1.04D+00    2.30611D-01
         7    3.08968D-01  0.00D+00  3.09D-01  1.09D+00    2.76733D-01
         8    3.14262D-01  0.00D+00  3.14D-01  1.15D+00    3.22855D-01
         9    3.21111D-01  0.00D+00  3.21D-01  1.23D+00    3.68977D-01
RSPORT:    1 out of    9 new trial vectors linear dependent

 ** RSPCTL MICROITERATION NUMBER    2

       No.  Residual tot.,    conf., and orb.    Bnorm      Frequency 
      ----------------------------------------------------------------
         1    4.21496D-03  0.00D+00  4.21D-03  9.51D-01    0.00000D+00
         2    4.21896D-03  0.00D+00  4.22D-03  9.55D-01    4.61221D-02
         3    4.23109D-03  0.00D+00  4.23D-03  9.65D-01    9.22442D-02
         4    4.25184D-03  0.00D+00  4.25D-03  9.83D-01    1.38366D-01
         5    4.28206D-03  0.00D+00  4.28D-03  1.01D+00    1.84488D-01
         6    4.32317D-03  0.00D+00  4.32D-03  1.04D+00    2.30611D-01
         7    4.37736D-03  0.00D+00  4.38D-03  1.09D+00    2.76733D-01
         8    4.44818D-03  0.00D+00  4.45D-03  1.15D+00    3.22855D-01
         9    4.54150D-03  0.00D+00  4.54D-03  1.24D+00    3.68977D-01
RSPORT:    1 out of    9 new trial vectors linear dependent

 ** RSPCTL MICROITERATION NUMBER    3

       No.  Residual tot.,    conf., and orb.    Bnorm      Frequency 
      ----------------------------------------------------------------
         1    2.20921D-04  0.00D+00  2.21D-04  9.51D-01    0.00000D+00
         2    2.21746D-04  0.00D+00  2.22D-04  9.55D-01    4.61221D-02
         3    2.24241D-04  0.00D+00  2.24D-04  9.65D-01    9.22442D-02
         4    2.28472D-04  0.00D+00  2.28D-04  9.83D-01    1.38366D-01
         5    2.34558D-04  0.00D+00  2.35D-04  1.01D+00    1.84488D-01
         6    2.42684D-04  0.00D+00  2.43D-04  1.04D+00    2.30611D-01
         7    2.53130D-04  0.00D+00  2.53D-04  1.09D+00    2.76733D-01
         8    2.66313D-04  0.00D+00  2.66D-04  1.15D+00    3.22855D-01
         9    2.82871D-04  0.00D+00  2.83D-04  1.24D+00    3.68977D-01

 *** THE REQUESTED    9 SOLUTION VECTORS CONVERGED

 Convergence of RSP solution vectors, threshold = 1.00D-03
 ---------------------------------------------------------------
 (dimension of paired reduced space:   48)
 RSP solution vector no.    1; norm of residual   2.32D-04
 RSP solution vector no.    2; norm of residual   2.32D-04
 RSP solution vector no.    3; norm of residual   2.32D-04
 RSP solution vector no.    4; norm of residual   2.32D-04
 RSP solution vector no.    5; norm of residual   2.32D-04
 RSP solution vector no.    6; norm of residual   2.32D-04
 RSP solution vector no.    7; norm of residual   2.32D-04
 RSP solution vector no.    8; norm of residual   2.31D-04
 RSP solution vector no.    9; norm of residual   2.29D-04

 *** RSPCTL MICROITERATIONS CONVERGED


           Final output of second order properties from linear response
           ------------------------------------------------------------


@ Spin symmetry of operators: singlet

 Note that minus the linear response function: - << A; B >>(omega) is printed.
 The results are of quadratic accuracy using Sellers formula.

@ FREQUENCY INDEPENDENT SECOND ORDER PROPERTIES

@ -<< YDIPLEN  ; YDIPLEN  >> =  2.329380677248E+00

@ FREQUENCY DEPENDENT SECOND ORDER PROPERTIES WITH FREQUENCY :

@    a.u.:  4.6122125D-02
@    cm-1:  1.0122636D+04
@    eV  :  1.2550469D+00
@  kJ/mol:  1.2109362D+02
@    nm  :  9.8788495D+02

@ -<< YDIPLEN  ; YDIPLEN  >> =  2.333365792401E+00

@ FREQUENCY DEPENDENT SECOND ORDER PROPERTIES WITH FREQUENCY :

@    a.u.:  9.2244250D-02
@    cm-1:  2.0245273D+04
@    eV  :  2.5100937D+00
@  kJ/mol:  2.4218724D+02
@    nm  :  4.9394247D+02

@ -<< YDIPLEN  ; YDIPLEN  >> =  2.345456340109E+00

@ FREQUENCY DEPENDENT SECOND ORDER PROPERTIES WITH FREQUENCY :

@    a.u.:  1.3836637D-01
@    cm-1:  3.0367909D+04
@    eV  :  3.7651406D+00
@  kJ/mol:  3.6328086D+02
@    nm  :  3.2929498D+02

@ -<< YDIPLEN  ; YDIPLEN  >> =  2.366072827521E+00

@ FREQUENCY DEPENDENT SECOND ORDER PROPERTIES WITH FREQUENCY :

@    a.u.:  1.8448850D-01
@    cm-1:  4.0490545D+04
@    eV  :  5.0201875D+00
@  kJ/mol:  4.8437448D+02
@    nm  :  2.4697124D+02

@ -<< YDIPLEN  ; YDIPLEN  >> =  2.395969239941E+00

@ FREQUENCY DEPENDENT SECOND ORDER PROPERTIES WITH FREQUENCY :

@    a.u.:  2.3061063D-01
@    cm-1:  5.0613181D+04
@    eV  :  6.2752343D+00
@  kJ/mol:  6.0546810D+02
@    nm  :  1.9757699D+02

@ -<< YDIPLEN  ; YDIPLEN  >> =  2.436326299235E+00

@ FREQUENCY DEPENDENT SECOND ORDER PROPERTIES WITH FREQUENCY :

@    a.u.:  2.7673275D-01
@    cm-1:  6.0735818D+04
@    eV  :  7.5302812D+00
@  kJ/mol:  7.2656172D+02
@    nm  :  1.6464749D+02

@ -<< YDIPLEN  ; YDIPLEN  >> =  2.488915023625E+00

@ FREQUENCY DEPENDENT SECOND ORDER PROPERTIES WITH FREQUENCY :

@    a.u.:  3.2285487D-01
@    cm-1:  7.0858454D+04
@    eV  :  8.7853280D+00
@  kJ/mol:  8.4765534D+02
@    nm  :  1.4112642D+02

@ -<< YDIPLEN  ; YDIPLEN  >> =  2.556381372973E+00

@ FREQUENCY DEPENDENT SECOND ORDER PROPERTIES WITH FREQUENCY :

@    a.u.:  3.6897700D-01
@    cm-1:  8.0981090D+04
@    eV  :  1.0040375D+01
@  kJ/mol:  9.6874896D+02
@    nm  :  1.2348562D+02

@ -<< YDIPLEN  ; YDIPLEN  >> =  2.642757077930E+00


 Time used in linear response calculation is      0.50 CPU seconds for symmetry 3
 ----------------------------------------------------------------
 ----- Linear response calculation
 ----- Symmetry of excitation/property operator(s)    5  ( B1u)
 ----------------------------------------------------------------

 Number of excitations of this symmetry            0
 Number of response properties of this symmetry    1
 Number of C6/C8 properties of this symmetry       0


 Perturbation symmetry.     KSYMOP:           5
 Perturbation spin symmetry.TRPLET:           F
 Orbital variables.         KZWOPT:          75
 Configuration variables.   KZCONF:           0
 Total number of variables. KZVAR :          75


 RSPLR -- linear response calculation for symmetry 5  ( B1u)
 RSPLR -- operator label : ZDIPLEN 
 RSPLR -- operator spin  :   0
 RSPLR -- frequencies    :     0.000000  0.046122  0.092244  0.138366  0.184488
                               0.230611  0.276733  0.322855  0.368977



 ---  SOLVING SETS OF LINEAR EQUATIONS FOR LINEAR RESPONSE PROPERTIES ---

 Operator symmetry = 5  ( B1u); triplet =   F

RSPORT:    1 out of    9 new trial vectors linear dependent

 ** RSPCTL MICROITERATION NUMBER    1

       No.  Residual tot.,    conf., and orb.    Bnorm      Frequency 
      ----------------------------------------------------------------
         1    3.53005D-01  0.00D+00  3.53D-01  9.47D-01    0.00000D+00
         2    3.53537D-01  0.00D+00  3.54D-01  9.50D-01    4.61221D-02
         3    3.55155D-01  0.00D+00  3.55D-01  9.60D-01    9.22442D-02
         4    3.57926D-01  0.00D+00  3.58D-01  9.78D-01    1.38366D-01
         5    3.61972D-01  0.00D+00  3.62D-01  1.00D+00    1.84488D-01
         6    3.67489D-01  0.00D+00  3.67D-01  1.04D+00    2.30611D-01
         7    3.74779D-01  0.00D+00  3.75D-01  1.09D+00    2.76733D-01
         8    3.84310D-01  0.00D+00  3.84D-01  1.15D+00    3.22855D-01
         9    3.96822D-01  0.00D+00  3.97D-01  1.23D+00    3.68977D-01

 ** RSPCTL MICROITERATION NUMBER    2

       No.  Residual tot.,    conf., and orb.    Bnorm      Frequency 
      ----------------------------------------------------------------
         1    4.99657D-03  0.00D+00  5.00D-03  9.51D-01    0.00000D+00
         2    4.99355D-03  0.00D+00  4.99D-03  9.55D-01    4.61221D-02
         3    4.98418D-03  0.00D+00  4.98D-03  9.65D-01    9.22442D-02
         4    4.96762D-03  0.00D+00  4.97D-03  9.83D-01    1.38366D-01
         5    4.94229D-03  0.00D+00  4.94D-03  1.01D+00    1.84488D-01
         6    4.90583D-03  0.00D+00  4.91D-03  1.04D+00    2.30611D-01
         7    4.85486D-03  0.00D+00  4.85D-03  1.09D+00    2.76733D-01
         8    4.78476D-03  0.00D+00  4.78D-03  1.15D+00    3.22855D-01
         9    4.68973D-03  0.00D+00  4.69D-03  1.24D+00    3.68977D-01
RSPORT:    2 out of    9 new trial vectors linear dependent

 ** RSPCTL MICROITERATION NUMBER    3

       No.  Residual tot.,    conf., and orb.    Bnorm      Frequency 
      ----------------------------------------------------------------
         1    6.39840D-05  0.00D+00  6.40D-05  9.51D-01    0.00000D+00
         2    6.41148D-05  0.00D+00  6.41D-05  9.55D-01    4.61221D-02
         3    6.45106D-05  0.00D+00  6.45D-05  9.65D-01    9.22442D-02
         4    6.51820D-05  0.00D+00  6.52D-05  9.83D-01    1.38366D-01
         5    6.61489D-05  0.00D+00  6.61D-05  1.01D+00    1.84488D-01
         6    6.74429D-05  0.00D+00  6.74D-05  1.04D+00    2.30611D-01
         7    6.91139D-05  0.00D+00  6.91D-05  1.09D+00    2.76733D-01
         8    7.12401D-05  0.00D+00  7.12D-05  1.15D+00    3.22855D-01
         9    7.39496D-05  0.00D+00  7.39D-05  1.24D+00    3.68977D-01

 *** THE REQUESTED    9 SOLUTION VECTORS CONVERGED

 Convergence of RSP solution vectors, threshold = 1.00D-03
 ---------------------------------------------------------------
 (dimension of paired reduced space:   48)
 RSP solution vector no.    1; norm of residual   6.73D-05
 RSP solution vector no.    2; norm of residual   6.72D-05
 RSP solution vector no.    3; norm of residual   6.68D-05
 RSP solution vector no.    4; norm of residual   6.63D-05
 RSP solution vector no.    5; norm of residual   6.56D-05
 RSP solution vector no.    6; norm of residual   6.46D-05
 RSP solution vector no.    7; norm of residual   6.33D-05
 RSP solution vector no.    8; norm of residual   6.17D-05
 RSP solution vector no.    9; norm of residual   5.97D-05

 *** RSPCTL MICROITERATIONS CONVERGED


           Final output of second order properties from linear response
           ------------------------------------------------------------


@ Spin symmetry of operators: singlet

 Note that minus the linear response function: - << A; B >>(omega) is printed.
 The results are of quadratic accuracy using Sellers formula.

@ FREQUENCY INDEPENDENT SECOND ORDER PROPERTIES

@ -<< ZDIPLEN  ; ZDIPLEN  >> =  2.329380677360E+00

@ FREQUENCY DEPENDENT SECOND ORDER PROPERTIES WITH FREQUENCY :

@    a.u.:  4.6122125D-02
@    cm-1:  1.0122636D+04
@    eV  :  1.2550469D+00
@  kJ/mol:  1.2109362D+02
@    nm  :  9.8788495D+02

@ -<< ZDIPLEN  ; ZDIPLEN  >> =  2.333365792514E+00

@ FREQUENCY DEPENDENT SECOND ORDER PROPERTIES WITH FREQUENCY :

@    a.u.:  9.2244250D-02
@    cm-1:  2.0245273D+04
@    eV  :  2.5100937D+00
@  kJ/mol:  2.4218724D+02
@    nm  :  4.9394247D+02

@ -<< ZDIPLEN  ; ZDIPLEN  >> =  2.345456340224E+00

@ FREQUENCY DEPENDENT SECOND ORDER PROPERTIES WITH FREQUENCY :

@    a.u.:  1.3836637D-01
@    cm-1:  3.0367909D+04
@    eV  :  3.7651406D+00
@  kJ/mol:  3.6328086D+02
@    nm  :  3.2929498D+02

@ -<< ZDIPLEN  ; ZDIPLEN  >> =  2.366072827641E+00

@ FREQUENCY DEPENDENT SECOND ORDER PROPERTIES WITH FREQUENCY :

@    a.u.:  1.8448850D-01
@    cm-1:  4.0490545D+04
@    eV  :  5.0201875D+00
@  kJ/mol:  4.8437448D+02
@    nm  :  2.4697124D+02

@ -<< ZDIPLEN  ; ZDIPLEN  >> =  2.395969240067E+00

@ FREQUENCY DEPENDENT SECOND ORDER PROPERTIES WITH FREQUENCY :

@    a.u.:  2.3061063D-01
@    cm-1:  5.0613181D+04
@    eV  :  6.2752343D+00
@  kJ/mol:  6.0546810D+02
@    nm  :  1.9757699D+02

@ -<< ZDIPLEN  ; ZDIPLEN  >> =  2.436326299370E+00

@ FREQUENCY DEPENDENT SECOND ORDER PROPERTIES WITH FREQUENCY :

@    a.u.:  2.7673275D-01
@    cm-1:  6.0735818D+04
@    eV  :  7.5302812D+00
@  kJ/mol:  7.2656172D+02
@    nm  :  1.6464749D+02

@ -<< ZDIPLEN  ; ZDIPLEN  >> =  2.488915023771E+00

@ FREQUENCY DEPENDENT SECOND ORDER PROPERTIES WITH FREQUENCY :

@    a.u.:  3.2285487D-01
@    cm-1:  7.0858454D+04
@    eV  :  8.7853280D+00
@  kJ/mol:  8.4765534D+02
@    nm  :  1.4112642D+02

@ -<< ZDIPLEN  ; ZDIPLEN  >> =  2.556381373134E+00

@ FREQUENCY DEPENDENT SECOND ORDER PROPERTIES WITH FREQUENCY :

@    a.u.:  3.6897700D-01
@    cm-1:  8.0981090D+04
@    eV  :  1.0040375D+01
@  kJ/mol:  9.6874896D+02
@    nm  :  1.2348562D+02

@ -<< ZDIPLEN  ; ZDIPLEN  >> =  2.642757078111E+00


 Time used in linear response calculation is      0.50 CPU seconds for symmetry 5

  Total CPU  time used in RESPONSE:   1.56 seconds
  Total wall time used in RESPONSE:   1.57 seconds


                   .-------------------------------------------.
                   | End of Dynamic Property Section (RESPONS) |
                   `-------------------------------------------'

  Total CPU  time used in DALTON:   2.04 seconds
  Total wall time used in DALTON:   2.07 seconds

 
     Date and time (Linux)  : Wed Jan 11 14:15:11 2023
     Host name              : cn027                                   
