

     ************************************************************************
     *************** Dalton - An Electronic Structure Program ***************
     ************************************************************************

    This is output from DALTON release Dalton2020.0 (2020)
         ( Web site: http://daltonprogram.org )

   ----------------------------------------------------------------------------

    NOTE:
     
    Dalton is an experimental code for the evaluation of molecular
    properties using (MC)SCF, DFT, CI, and CC wave functions.
    The authors accept no responsibility for the performance of
    the code or for the correctness of the results.
     
    The code (in whole or part) is provided under a licence and
    is not to be reproduced for further distribution without
    the written permission of the authors or their representatives.
     
    See the home page "http://daltonprogram.org" for further information.
     
    If results obtained with this code are published,
    the appropriate citations would be both of:
     
       K. Aidas, C. Angeli, K. L. Bak, V. Bakken, R. Bast,
       L. Boman, O. Christiansen, R. Cimiraglia, S. Coriani,
       P. Dahle, E. K. Dalskov, U. Ekstroem,
       T. Enevoldsen, J. J. Eriksen, P. Ettenhuber, B. Fernandez,
       L. Ferrighi, H. Fliegl, L. Frediani, K. Hald, A. Halkier,
       C. Haettig, H. Heiberg, T. Helgaker, A. C. Hennum,
       H. Hettema, E. Hjertenaes, S. Hoest, I.-M. Hoeyvik,
       M. F. Iozzi, B. Jansik, H. J. Aa. Jensen, D. Jonsson,
       P. Joergensen, J. Kauczor, S. Kirpekar,
       T. Kjaergaard, W. Klopper, S. Knecht, R. Kobayashi, H. Koch,
       J. Kongsted, A. Krapp, K. Kristensen, A. Ligabue,
       O. B. Lutnaes, J. I. Melo, K. V. Mikkelsen, R. H. Myhre,
       C. Neiss, C. B. Nielsen, P. Norman, J. Olsen,
       J. M. H. Olsen, A. Osted, M. J. Packer, F. Pawlowski,
       T. B. Pedersen, P. F. Provasi, S. Reine, Z. Rinkevicius,
       T. A. Ruden, K. Ruud, V. Rybkin, P. Salek, C. C. M. Samson,
       A. Sanchez de Meras, T. Saue, S. P. A. Sauer,
       B. Schimmelpfennig, K. Sneskov, A. H. Steindal,
       K. O. Sylvester-Hvid, P. R. Taylor, A. M. Teale,
       E. I. Tellgren, D. P. Tew, A. J. Thorvaldsen, L. Thoegersen,
       O. Vahtras, M. A. Watson, D. J. D. Wilson, M. Ziolkowski
       and H. Agren,
       "The Dalton quantum chemistry program system",
       WIREs Comput. Mol. Sci. 2014, 4:269–284 (doi: 10.1002/wcms.1172)
     
    and
     
       Dalton, a molecular electronic structure program,
       Release Dalton2020.0 (2020), see http://daltonprogram.org
   ----------------------------------------------------------------------------

    Authors in alphabetical order (Major contribution(s) in parenthesis):

  Kestutis Aidas,           Vilnius University,           Lithuania   (QM/MM)
  Celestino Angeli,         University of Ferrara,        Italy       (NEVPT2)
  Keld L. Bak,              UNI-C,                        Denmark     (AOSOPPA, non-adiabatic coupling, magnetic properties)
  Vebjoern Bakken,          University of Oslo,           Norway      (DALTON; geometry optimizer, symmetry detection)
  Radovan Bast,             UiT The Arctic U. of Norway,  Norway      (DALTON installation and execution frameworks)
  Pablo Baudin,             University of Valencia,       Spain       (Cholesky excitation energies)
  Linus Boman,              NTNU,                         Norway      (Cholesky decomposition and subsystems)
  Bruno N. Cabral Tenorio,  Technical Univ. of Denmark,   Denmark     (Lanczos-based CC methods)
  Ove Christiansen,         Aarhus University,            Denmark     (CC module)
  Renzo Cimiraglia,         University of Ferrara,        Italy       (NEVPT2)
  Sonia Coriani,            Technical Univ. of Denmark,   Denmark     (CC and RESPONS modules)
  Janusz Cukras,            University of Warsaw,         Poland      (MChD in RESPONS)
  Paal Dahle,               University of Oslo,           Norway      (Parallelization)
  Erik K. Dalskov,          UNI-C,                        Denmark     (SOPPA)
  Thomas Enevoldsen,        Univ. of Southern Denmark,    Denmark     (SOPPA)
  Janus J. Eriksen,         Aarhus University,            Denmark     (Polarizable embedding, TDA)
  Rasmus Faber,             Technical Univ. of Denmark,   Denmark     (Vib.avg. NMR w. SOPPA, parallel AO-SOPPA, CVS-CC and EOMCC)
  Tobias Fahleson,          KTH Stockholm,                Sweden      (Damped cubic response)
  Berta Fernandez,          U. of Santiago de Compostela, Spain       (Doublet spin, ESR in RESPONS)
  Lara Ferrighi,            Aarhus University,            Denmark     (PCM Cubic response)
  Heike Fliegl,             University of Oslo,           Norway      (CCSD(R12))
  Luca Frediani,            UiT The Arctic U. of Norway,  Norway      (PCM)
  Emmanuel Fromager,        Univ. Strasbourg,             France      (MC-srDFT)
  Bin Gao,                  UiT The Arctic U. of Norway,  Norway      (Gen1Int library)
  Andre S. P. Gomes,        CNRS/Universite de Lille,     France      (Frozen density embedding)
  Christof Haettig,         Ruhr-University Bochum,       Germany     (CC module)
  Kasper Hald,              Aarhus University,            Denmark     (CC module)
  Asger Halkier,            Aarhus University,            Denmark     (CC module)
  Frederik Beyer Hansen,    University of Copenhagen,     Denmark     (Parallel AO-SOPPA)
  Erik D. Hedegaard,        Univ. of Southern Denmark,    Denmark     (Polarizable embedding, QM/MM, and MC-srDFT)
  Hanne Heiberg,            University of Oslo,           Norway      (Geometry analysis, selected one-electron integrals)
  Trygve Helgaker,          University of Oslo,           Norway      (DALTON; ABACUS, ERI, DFT modules, London, and much more)
  Alf Christian Hennum,     University of Oslo,           Norway      (Parity violation)
  Hinne Hettema,            University of Auckland,       New Zealand (Quadratic response in RESPONS; SIRIUS supersymmetry)
  Eirik Hjertenaes,         NTNU,                         Norway      (Cholesky decomposition)
  Pi A. B. Haase,           University of Copenhagen,     Denmark     (Triplet AO-SOPPA)
  Maria Francesca Iozzi,    University of Oslo,           Norway      (RPA)
  Christoph Jacob           TU Braunschweig               Germany     (Frozen density embedding)
  Brano Jansik              Technical Univ. of Ostrava    Czech Rep.  (DFT cubic response)
  Hans Joergen Aa. Jensen,  Univ. of Southern Denmark,    Denmark     (DALTON; SIRIUS, RESPONS, ABACUS, MC-srDFT, and much more)
  Dan Jonsson,              UiT The Arctic U. of Norway,  Norway      (Cubic response in RESPONS module)
  Poul Joergensen,          Aarhus University,            Denmark     (RESPONS, ABACUS, and CC modules)
  Maciej Kaminski,          University of Warsaw,         Poland      (CPPh in RESPONS)
  Joanna Kauczor,           Linkoeping University,        Sweden      (Complex polarization propagator (CPP) module)
  Sheela Kirpekar,          Univ. of Southern Denmark,    Denmark     (Mass-velocity & Darwin integrals)
  Erik Kjellgren,           Univ. of Southern Denmark,    Denmark     (MC-srDFT)
  Wim Klopper,              KIT Karlsruhe,                Germany     (R12 code in CC, SIRIUS, and ABACUS modules)
  Stefan Knecht,            ETH Zurich,                   Switzerland (Parallel CI and MCSCF, MC-srDFT)
  Rika Kobayashi,           Australian National Univ.,    Australia   (DIIS in CC, London in MCSCF)
  Henrik Koch,              NTNU,                         Norway      (CC module, Cholesky decomposition)
  Jacob Kongsted,           Univ. of Southern Denmark,    Denmark     (Polarizable embedding, polarizable density embedding, QM/MM)
  Andrea Ligabue,           University of Modena,         Italy       (CTOCD, AOSOPPA)
  Nanna H. List             Univ. of Southern Denmark,    Denmark     (Polarizable embedding)
  Ola B. Lutnaes,           University of Oslo,           Norway      (DFT Hessian)
  Juan I. Melo,             University of Buenos Aires,   Argentina   (LRESC, Relativistic Effects on NMR Shieldings)
  Kurt V. Mikkelsen,        University of Copenhagen,     Denmark     (MC-SCRF and QM/MM)
  Rolf H. Myhre,            NTNU,                         Norway      (Subsystems and CC3)
  Christian Neiss,          Univ. Erlangen-Nuernberg,     Germany     (CCSD(R12))
  Christian B. Nielsen,     University of Copenhagen,     Denmark     (QM/MM)
  Patrick Norman,           KTH Stockholm,                Sweden      (Cubic response and complex frequency response in RESPONS)
  Jeppe Olsen,              Aarhus University,            Denmark     (SIRIUS CI/density modules)
  Jogvan Magnus H. Olsen,   Aarhus University,            Denmark     (Polarizable embedding and polarizable density embedding)
  Anders Osted,             Copenhagen University,        Denmark     (QM/MM)
  Martin J. Packer,         University of Sheffield,      UK          (SOPPA)
  Filip Pawlowski,          Kazimierz Wielki University,  Poland      (CC3)
  Morten N. Pedersen,       Univ. of Southern Denmark,    Denmark     (Polarizable embedding)
  Thomas B. Pedersen,       University of Oslo,           Norway      (Cholesky decomposition)
  Patricio F. Provasi,      University of Northeastern,   Argentina   (Analysis of coupling constants in localized orbitals)
  Peter Reinholdt,          Univ. of Southern Denmark,    Denmark     (Polarizable embedding and polarizable density embedding)
  Zilvinas Rinkevicius,     KTH Stockholm,                Sweden      (open-shell DFT, ESR)
  Elias Rudberg,            KTH Stockholm,                Sweden      (DFT grid and basis info)
  Torgeir A. Ruden,         University of Oslo,           Norway      (Numerical derivatives in ABACUS)
  Kenneth Ruud,             UiT The Arctic U. of Norway,  Norway      (DALTON; ABACUS magnetic properties and much more)
  Pawel Salek,              KTH Stockholm,                Sweden      (DALTON; DFT code)
  Claire C. M. Samson       University of Karlsruhe       Germany     (Boys localization, r12 integrals in ERI)
  Alfredo Sanchez de Meras, University of Valencia,       Spain       (CC module, Cholesky decomposition)
  Trond Saue,               Paul Sabatier University,     France      (direct Fock matrix construction)
  Stephan P. A. Sauer,      University of Copenhagen,     Denmark     (SOPPA(CCSD), SOPPA prop., AOSOPPA, vibrational g-factors)
  Bernd Schimmelpfennig,    Forschungszentrum Karlsruhe,  Germany     (AMFI module)
  Anna K. Schnack-Petersen, University of Copenhagen,     Denmark     (RPA(D) and HRPA(D) properties in AOSOPPA)
  Kristian Sneskov,         Aarhus University,            Denmark     (Polarizable embedding, QM/MM)
  Arnfinn H. Steindal,      UiT The Arctic U. of Norway,  Norway      (parallel QM/MM, polarizable embedding)
  Casper Steinmann,         Aalborg University,           Denmark     (QFIT, polarizable embedding)
  K. O. Sylvester-Hvid,     University of Copenhagen,     Denmark     (MC-SCRF)
  Peter R. Taylor,          VLSCI/Univ. of Melbourne,     Australia   (Symmetry handling ABACUS, integral transformation)
  Andrew M. Teale,          University of Nottingham,     England     (DFT-AC, DFT-D)
  David P. Tew,             University of Bristol,        England     (CCSD(R12))
  Julien Toulouse,          Sorbonne Univ.,               France      (MC-srDFT)
  Olav Vahtras,             KTH Stockholm,                Sweden      (Triplet response, spin-orbit, ESR, TDDFT, open-shell DFT)
  Lucas Visscher,           Vrije Universiteit Amsterdam, Netherlands (Frozen density embedding)
  David J. Wilson,          La Trobe University,          Australia   (DFT Hessian and DFT magnetizabilities)
  Hans Agren,               KTH Stockholm,                Sweden      (SIRIUS module, RESPONS, MC-SCRF solvation)
 --------------------------------------------------------------------------------

     Date and time (Linux)  : Wed Jan 11 14:14:27 2023
     Host name              : cn027                                   

 * Work memory size             :    64000000 =  488.28 megabytes.

 * Directories for basis set searches:
   1) /gpfs/projects/rjh/adrian/fd_compare/dalton/hf/Ne/dipole
   2) /gpfs/projects/rjh/adrian/dalton/build/basis


Compilation information
-----------------------

 Who compiled             | ahurtado
 Host                     | sn-mem
 System                   | Linux-3.10.0-1160.24.1.el7.x86_64
 CMake generator          | Unix Makefiles
 Processor                | x86_64
 64-bit integers          | OFF
 MPI                      | ON
 Fortran compiler         | /gpfs/software/intel/oneAPI/2021_4/mpi/2021.4.0/bi
                          | n/mpif90
 Fortran compiler version | GNU Fortran (GCC) 11.2.0
 C compiler               | /gpfs/software/intel/oneAPI/2021_4/mpi/2021.4.0/bi
                          | n/mpicc
 C compiler version       | gcc (GCC) 11.2.0
 C++ compiler             | /gpfs/software/intel/oneAPI/2021_4/mpi/2021.4.0/bi
                          | n/mpicxx
 C++ compiler version     | unknown
 BLAS                     | /gpfs/software/intel/oneAPI/2021_4/mkl/2021.4.0/li
                          | b/intel64/libmkl_gf_lp64.so;/gpfs/software/intel/o
                          | neAPI/2021_4/mkl/2021.4.0/lib/intel64/libmkl_seque
                          | ntial.so;/gpfs/software/intel/oneAPI/2021_4/mkl/20
                          | 21.4.0/lib/intel64/libmkl_core.so;/usr/lib64/libpt
                          | hread.so;/usr/lib64/libm.so
 LAPACK                   | /gpfs/software/intel/oneAPI/2021_4/mkl/2021.4.0/li
                          | b/intel64/libmkl_lapack95_lp64.a;/gpfs/software/in
                          | tel/oneAPI/2021_4/mkl/2021.4.0/lib/intel64/libmkl_
                          | gf_lp64.so
 Static linking           | OFF
 Last Git revision        | 66052b3af5ea7225e31178bf9a8b031913c72190
 Git branch               | (HEAD detached at Dalton2020.0)
 Configuration time       | 2023-01-11 13:33:37.731835

 * MPI parallel run using 20 processes.


   Content of the .dal input file
 ----------------------------------

**DALTON INPUT
.RUN RESPONSE
.DIRECT
**WAVE FUNCTIONS
.HF
**RESPONSE
*LINEAR
.DIPLEN
.FREQUENCIES
9
0.0 0.046122125 0.09224425 0.13836637499999999 0.1844885 0.230610625 0.27673274999999997 0.322854875
**END OF DALTON INPUT


   Content of the .mol file
 ----------------------------

BASIS
aug-cc-pV5Z
blah
blah
Atomtype=1 Angstrom
Charge=10 Atoms=1
Ne_a 0.000000000000 0.000000000000 0.000000000000


       *******************************************************************
       *********** Output from DALTON general input processing ***********
       *******************************************************************

 --------------------------------------------------------------------------------
   Overall default print level:    0
   Print level for DALTON.STAT:    1

    Parallel calculation using MPI
    AO-direct calculation (in sections where implemented)
    HERMIT 1- and 2-electron integral sections will be executed
    "Old" integral transformation used (limited to max 255 basis functions)
    Wave function sections will be executed (SIRIUS module)
    Dynamic molecular response properties section will be executed (RESPONSE module)
 --------------------------------------------------------------------------------


   ****************************************************************************
   *************** Output of molecule and basis set information ***************
   ****************************************************************************


    The two title cards from your ".mol" input:
    ------------------------------------------------------------------------
 1: blah                                                                    
 2: blah                                                                    
    ------------------------------------------------------------------------

  Coordinates are entered in Angstrom and converted to atomic units.
          - Conversion factor : 1 bohr = 0.52917721 A

  Atomic type no.    1
  --------------------
  Nuclear charge:  10.00000
  Number of symmetry independent centers:    1
  Number of basis sets to read;    2
  Basis set file used for this atomic type with Z =  10 :
     "/gpfs/projects/rjh/adrian/dalton/build/basis/aug-cc-pV5Z"


                      SYMADD: Requested addition of symmetry
                      --------------------------------------

 Symmetry test threshold:  5.00E-06

@   The molecule is centered at center of mass and rotated
@   so principal axes of inertia are along coordinate axes.

 Symmetry class found: D(oo,h)        

 Symmetry Independent Centres             
 ----------------------------
Ne_a  10 :      0.00000000     0.00000000     0.00000000  Isotope  1

 The following symmetry elements were found:   X  Y  Z  


                         SYMGRP: Point group information
                         -------------------------------

@    Full point group is: D(oo,h)        
@    Represented as:      D2h

@  * The irrep name for each symmetry:    1: Ag     2: B3u    3: B2u    4: B1g    5: B1u    6: B2g    7: B3g    8: Au 


   * The point group was generated by:

      Reflection in the yz-plane
      Reflection in the xz-plane
      Reflection in the xy-plane

   * Group multiplication table

        |  E   C2z  C2y  C2x   i   Oxy  Oxz  Oyz
   -----+----------------------------------------
     E  |  E   C2z  C2y  C2x   i   Oxy  Oxz  Oyz
    C2z | C2z   E   C2x  C2y  Oxy   i   Oyz  Oxz
    C2y | C2y  C2x   E   C2z  Oxz  Oyz   i   Oxy
    C2x | C2x  C2y  C2z   E   Oyz  Oxz  Oxy   i 
     i  |  i   Oxy  Oxz  Oyz   E   C2z  C2y  C2x
    Oxy | Oxy   i   Oyz  Oxz  C2z   E   C2x  C2y
    Oxz | Oxz  Oyz   i   Oxy  C2y  C2x   E   C2z
    Oyz | Oyz  Oxz  Oxy   i   C2x  C2y  C2z   E 

   * Character table

        |  E   C2z  C2y  C2x   i   Oxy  Oxz  Oyz
   -----+----------------------------------------
    Ag  |   1    1    1    1    1    1    1    1
    B3u |   1   -1   -1    1   -1    1    1   -1
    B2u |   1   -1    1   -1   -1    1   -1    1
    B1g |   1    1   -1   -1    1    1   -1   -1
    B1u |   1    1   -1   -1   -1   -1    1    1
    B2g |   1   -1    1   -1    1   -1    1   -1
    B3g |   1   -1   -1    1    1   -1   -1    1
    Au  |   1    1    1    1   -1   -1   -1   -1

   * Direct product table

        | Ag   B3u  B2u  B1g  B1u  B2g  B3g  Au 
   -----+----------------------------------------
    Ag  | Ag   B3u  B2u  B1g  B1u  B2g  B3g  Au 
    B3u | B3u  Ag   B1g  B2u  B2g  B1u  Au   B3g
    B2u | B2u  B1g  Ag   B3u  B3g  Au   B1u  B2g
    B1g | B1g  B2u  B3u  Ag   Au   B3g  B2g  B1u
    B1u | B1u  B2g  B3g  Au   Ag   B3u  B2u  B1g
    B2g | B2g  B1u  Au   B3g  B3u  Ag   B1g  B2u
    B3g | B3g  Au   B1u  B2g  B2u  B1g  Ag   B3u
    Au  | Au   B3g  B2g  B1u  B1g  B2u  B3u  Ag 


                                 Isotopic Masses
                                 ---------------

                           Ne_a       19.992439

                       Total mass:    19.992439 amu
                       Natural abundance:  90.480 %

 Center-of-mass coordinates (a.u.):    0.000000    0.000000    0.000000
 Center-of-mass coordinates (Angs):    0.000000    0.000000    0.000000


  Atoms and basis sets
  --------------------

  Number of atom types :    1
  Total number of atoms:    1

  Basis set used is "aug-cc-pV5Z" from the basis set library.

  label    atoms   charge   prim   cont     basis
  ----------------------------------------------------------------------
  Ne          1   10.0000   144   127      [15s9p5d4f3g2h|7s6p5d4f3g2h]                       
  ----------------------------------------------------------------------
  total:      1   10.0000   144   127
  ----------------------------------------------------------------------
  Spherical harmonic basis used.

  Threshold for neglecting AO integrals:  1.00D-12


  Cartesian Coordinates (a.u.)
  ----------------------------

  Total number of coordinates:    3
  Ne_a    :     1  x   0.0000000000    2  y   0.0000000000    3  z   0.0000000000


  Symmetry Coordinates
  --------------------

  Number of coordinates in each symmetry:     0    1    1    0    1    0    0    0

  Symmetry  B3u ( 2)

    1   Ne_a  x    1

  Symmetry  B2u ( 3)

    2   Ne_a  y    2

  Symmetry  B1u ( 5)

    3   Ne_a  z    3


@ This is an atomic calculation.


  Symmetry Orbitals
  -----------------

  Number of orbitals in each symmetry:          26   20   20   11   20   11   11    8


  Symmetry  Ag ( 1)

    1     Ne_a     1s         1
    2     Ne_a     1s         2
    3     Ne_a     1s         3
    4     Ne_a     1s         4
    5     Ne_a     1s         5
    6     Ne_a     1s         6
    7     Ne_a     1s         7
    8     Ne_a     3d0       28
    9     Ne_a     3d2+      30
   10     Ne_a     3d0       33
   11     Ne_a     3d2+      35
   12     Ne_a     3d0       38
   13     Ne_a     3d2+      40
   14     Ne_a     3d0       43
   15     Ne_a     3d2+      45
   16     Ne_a     3d0       48
   17     Ne_a     3d2+      50
   18     Ne_a     5g0       83
   19     Ne_a     5g2+      85
   20     Ne_a     5g4+      87
   21     Ne_a     5g0       92
   22     Ne_a     5g2+      94
   23     Ne_a     5g4+      96
   24     Ne_a     5g0      101
   25     Ne_a     5g2+     103
   26     Ne_a     5g4+     105


  Symmetry  B3u( 2)

   27     Ne_a     2px        8
   28     Ne_a     2px       11
   29     Ne_a     2px       14
   30     Ne_a     2px       17
   31     Ne_a     2px       20
   32     Ne_a     2px       23
   33     Ne_a     4f1+      55
   34     Ne_a     4f3+      57
   35     Ne_a     4f1+      62
   36     Ne_a     4f3+      64
   37     Ne_a     4f1+      69
   38     Ne_a     4f3+      71
   39     Ne_a     4f1+      76
   40     Ne_a     4f3+      78
   41     Ne_a     6h1+     112
   42     Ne_a     6h3+     114
   43     Ne_a     6h5+     116
   44     Ne_a     6h1+     123
   45     Ne_a     6h3+     125
   46     Ne_a     6h5+     127


  Symmetry  B2u( 3)

   47     Ne_a     2py        9
   48     Ne_a     2py       12
   49     Ne_a     2py       15
   50     Ne_a     2py       18
   51     Ne_a     2py       21
   52     Ne_a     2py       24
   53     Ne_a     4f3-      51
   54     Ne_a     4f1-      53
   55     Ne_a     4f3-      58
   56     Ne_a     4f1-      60
   57     Ne_a     4f3-      65
   58     Ne_a     4f1-      67
   59     Ne_a     4f3-      72
   60     Ne_a     4f1-      74
   61     Ne_a     6h5-     106
   62     Ne_a     6h3-     108
   63     Ne_a     6h1-     110
   64     Ne_a     6h5-     117
   65     Ne_a     6h3-     119
   66     Ne_a     6h1-     121


  Symmetry  B1g( 4)

   67     Ne_a     3d2-      26
   68     Ne_a     3d2-      31
   69     Ne_a     3d2-      36
   70     Ne_a     3d2-      41
   71     Ne_a     3d2-      46
   72     Ne_a     5g4-      79
   73     Ne_a     5g2-      81
   74     Ne_a     5g4-      88
   75     Ne_a     5g2-      90
   76     Ne_a     5g4-      97
   77     Ne_a     5g2-      99


  Symmetry  B1u( 5)

   78     Ne_a     2pz       10
   79     Ne_a     2pz       13
   80     Ne_a     2pz       16
   81     Ne_a     2pz       19
   82     Ne_a     2pz       22
   83     Ne_a     2pz       25
   84     Ne_a     4f0       54
   85     Ne_a     4f2+      56
   86     Ne_a     4f0       61
   87     Ne_a     4f2+      63
   88     Ne_a     4f0       68
   89     Ne_a     4f2+      70
   90     Ne_a     4f0       75
   91     Ne_a     4f2+      77
   92     Ne_a     6h0      111
   93     Ne_a     6h2+     113
   94     Ne_a     6h4+     115
   95     Ne_a     6h0      122
   96     Ne_a     6h2+     124
   97     Ne_a     6h4+     126


  Symmetry  B2g( 6)

   98     Ne_a     3d1+      29
   99     Ne_a     3d1+      34
  100     Ne_a     3d1+      39
  101     Ne_a     3d1+      44
  102     Ne_a     3d1+      49
  103     Ne_a     5g1+      84
  104     Ne_a     5g3+      86
  105     Ne_a     5g1+      93
  106     Ne_a     5g3+      95
  107     Ne_a     5g1+     102
  108     Ne_a     5g3+     104


  Symmetry  B3g( 7)

  109     Ne_a     3d1-      27
  110     Ne_a     3d1-      32
  111     Ne_a     3d1-      37
  112     Ne_a     3d1-      42
  113     Ne_a     3d1-      47
  114     Ne_a     5g3-      80
  115     Ne_a     5g1-      82
  116     Ne_a     5g3-      89
  117     Ne_a     5g1-      91
  118     Ne_a     5g3-      98
  119     Ne_a     5g1-     100


  Symmetry  Au ( 8)

  120     Ne_a     4f2-      52
  121     Ne_a     4f2-      59
  122     Ne_a     4f2-      66
  123     Ne_a     4f2-      73
  124     Ne_a     6h4-     107
  125     Ne_a     6h2-     109
  126     Ne_a     6h4-     118
  127     Ne_a     6h2-     120

  Symmetries of electric field:  B3u(2)  B2u(3)  B1u(5)

  Symmetries of magnetic field:  B3g(7)  B2g(6)  B1g(4)


                     .---------------------------------------.
                     | Starting in Integral Section (HERMIT) |
                     `---------------------------------------'



 ***************************************************************************************
 ****************** Output from **INTEGRALS input processing (HERMIT) ******************
 ***************************************************************************************


 - Using defaults, no **INTEGRALS input found

 Default print level:        1

 Calculation of one-electron Hamiltonian integrals.

 Center of mass  (bohr):      0.000000000000      0.000000000000      0.000000000000
 Operator center (bohr):      0.000000000000      0.000000000000      0.000000000000
 Gauge origin    (bohr):      0.000000000000      0.000000000000      0.000000000000
 Dipole origin   (bohr):      0.000000000000      0.000000000000      0.000000000000


     ************************************************************************
     ************************** Output from HERINT **************************
     ************************************************************************



                      Nuclear contribution to dipole moments
                      --------------------------------------

                    All dipole components are zero by symmetry


  Time used in GABGEN     is       0.19 seconds
  Total CPU  time used in HERMIT:   0.27 seconds
  Total wall time used in HERMIT:   0.28 seconds


                        .----------------------------------.
                        | End of Integral Section (HERMIT) |
                        `----------------------------------'



                   .--------------------------------------------.
                   | Starting in Wave Function Section (SIRIUS) |
                   `--------------------------------------------'


 *** Output from Huckel module :

     Using EWMO model:          T
     Using EHT  model:          F
     Number of Huckel orbitals each symmetry:    2    1    1    0    1    0    0    0

 EWMO - Energy Weighted Maximum Overlap - is a Huckel type method,
        which normally is better than Extended Huckel Theory.
 Reference: Linderberg and Ohrn, Propagators in Quantum Chemistry (Wiley, 1973)

 Huckel EWMO eigenvalues for symmetry :  1
          -32.772400      -1.930400

 Huckel EWMO eigenvalues for symmetry :  2
           -0.850400

 Huckel EWMO eigenvalues for symmetry :  3
           -0.850400

 Huckel EWMO eigenvalues for symmetry :  5
           -0.850400

 **********************************************************************
 *SIRIUS* a direct, restricted step, second order MCSCF program       *
 **********************************************************************

 
     Date and time (Linux)  : Wed Jan 11 14:14:28 2023
     Host name              : cn027                                   

 Title lines from ".mol" input file:
     blah                                                                    
     blah                                                                    

 Print level on unit LUPRI =   2 is   0
 Print level on unit LUW4  =   2 is   5

@    Restricted, closed shell Hartree-Fock calculation.

@    Time-dependent Hartree-Fock calculation (random phase approximation).
 Fock matrices are calculated directly and in parallel without use of integrals on disk.

 Initial molecular orbitals are obtained according to
 ".MOSTART EWMO  " input option

     Wave function specification
     ============================
@    Wave function type        --- HF ---
@    Number of closed shell electrons          10
@    Number of electrons in active shells       0
@    Total charge of the molecule               0

@    Spin multiplicity and 2 M_S                1         0
@    Total number of symmetries                 8 (point group: D2h)
@    Reference state symmetry                   1 (irrep name : Ag )

     Orbital specifications
     ======================
@    Abelian symmetry species          All |    1    2    3    4    5    6    7    8
@                                          |  Ag   B3u  B2u  B1g  B1u  B2g  B3g  Au 
                                       --- |  ---  ---  ---  ---  ---  ---  ---  ---
@    Total number of orbitals          127 |   26   20   20   11   20   11   11    8
@    Number of basis functions         127 |   26   20   20   11   20   11   11    8

      ** Automatic occupation of RHF orbitals **

      -- Initial occupation of symmetries is determined from extended Huckel guess.           
      -- Initial occupation of symmetries is :
@    Occupied SCF orbitals               5 |    2    1    1    0    1    0    0    0

     Maximum number of Fock   iterations      0
     Maximum number of DIIS   iterations     60
     Maximum number of QC-SCF iterations     60
     Threshold for SCF convergence     1.00D-05


 ***********************************************
 ***** DIIS acceleration of SCF iterations *****
 ***********************************************

 C1-DIIS algorithm; max error vectors =    8

 Automatic occupation of symmetries with  10 electrons.

 Iter     Total energy    Error norm  Delta(E)    SCF occupation
 -----------------------------------------------------------------------------
   1  Screening settings (-IFTHRS, JTDIIS, DIFDEN, times)   -7    1    T  5.04D-02  5.10D-02
@  1  -128.543698802       4.94D-01  -1.29D+02     2   1   1   0   1   0   0   0
      Virial theorem: -V/T =      2.000118
@    MULPOP   Ne_a   -0.00; 
   1  Level shift: doubly occupied orbital energies shifted by -2.00D-01
 -----------------------------------------------------------------------------
   2  Screening settings (-IFTHRS, JTDIIS, DIFDEN, times)   -7    2    T  3.06D-02  3.00D-02
@  2  -128.546673381       5.52D-02  -2.97D-03     2   1   1   0   1   0   0   0
      Virial theorem: -V/T =      1.999752
@    MULPOP   Ne_a   -0.00; 
   2  Level shift: doubly occupied orbital energies shifted by -5.00D-02
 -----------------------------------------------------------------------------
   3  Screening settings (-IFTHRS, JTDIIS, DIFDEN, times)  -11    3    F  2.94D-02  2.90D-02
@  3  -128.546781286       9.98D-03  -1.08D-04     2   1   1   0   1   0   0   0
      Virial theorem: -V/T =      2.000144
@    MULPOP   Ne_a    0.00; 
   3  Level shift: doubly occupied orbital energies shifted by -1.25D-02
 -----------------------------------------------------------------------------
   4  Screening settings (-IFTHRS, JTDIIS, DIFDEN, times)  -11    4    T  3.01D-02  3.00D-02
@  4  -128.546785048       4.88D-03  -3.76D-06     2   1   1   0   1   0   0   0
      Virial theorem: -V/T =      1.999941
@    MULPOP   Ne_a    0.00; 
 -----------------------------------------------------------------------------
   5  Screening settings (-IFTHRS, JTDIIS, DIFDEN, times)  -11    5    T  2.99D-02  3.00D-02
@  5  -128.546785544       1.40D-04  -4.95D-07     2   1   1   0   1   0   0   0
      Virial theorem: -V/T =      2.000006
@    MULPOP   Ne_a   -0.00; 
 -----------------------------------------------------------------------------
   6  Screening settings (-IFTHRS, JTDIIS, DIFDEN, times)  -11    6    T  2.93D-02  2.90D-02
@  6  -128.546785545       2.10D-05  -1.30D-09     2   1   1   0   1   0   0   0
      Virial theorem: -V/T =      2.000005
@    MULPOP   Ne_a   -0.00; 
 -----------------------------------------------------------------------------
   7  Screening settings (-IFTHRS, JTDIIS, DIFDEN, times)  -11    7    T  3.04D-02  3.00D-02
@  7  -128.546785545       1.22D-06  -1.59D-11     2   1   1   0   1   0   0   0

@ *** DIIS converged in   7 iterations !
@     Converged SCF energy, gradient:   -128.546785545212    1.22D-06
    - total time used in SIRFCK :              0.00 seconds


 *** SCF orbital energy analysis ***

 Only the 20 lowest virtual orbital energies printed in each symmetry.

 Number of electrons :   10
 Orbital occupations :    2    1    1    0    1    0    0    0

 Sym       Hartree-Fock orbital energies

1 Ag    -32.77255367    -1.93045002     0.18095983     0.65007616     0.65007616
          1.11077051     2.03836747     2.03836747     4.06898208     4.06898208
          4.06898208     4.39665767     5.28022019     5.28022019    11.07795404
         11.07795404    11.07795404    13.62662694    13.62662694    15.60517447
         30.55557397    30.55557397

2 B3u    -0.85043011     0.15627065     0.70900422     1.72352928     1.72352928
          2.41516561     5.01236490     5.01236490     7.27484731     9.80455780
          9.80455780     9.80455780    12.85216559    12.85216559    23.66983057
         26.08320371    26.08320371    26.08320371    33.48825472    33.48825472

3 B2u    -0.85043011     0.15627065     0.70900422     1.72352928     1.72352928
          2.41516561     5.01236490     5.01236490     7.27484731     9.80455780
          9.80455780     9.80455780    12.85216559    12.85216559    23.66983057
         26.08320371    26.08320371    26.08320371    33.48825472    33.48825472

4 B1g     0.65007616     2.03836747     4.06898208     4.06898208     5.28022019
         11.07795404    11.07795404    13.62662694    30.55557397    30.55557397
         36.31493464

5 B1u    -0.85043011     0.15627065     0.70900422     1.72352928     1.72352928
          2.41516561     5.01236490     5.01236490     7.27484731     9.80455780
          9.80455780     9.80455780    12.85216559    12.85216559    23.66983057
         26.08320371    26.08320371    26.08320371    33.48825472    33.48825472

6 B2g     0.65007616     2.03836747     4.06898208     4.06898208     5.28022019
         11.07795404    11.07795404    13.62662694    30.55557397    30.55557397
         36.31493464

7 B3g     0.65007616     2.03836747     4.06898208     4.06898208     5.28022019
         11.07795404    11.07795404    13.62662694    30.55557397    30.55557397
         36.31493464

8 Au      1.72352928     5.01236490     9.80455780     9.80455780    12.85216559
         26.08320371    26.08320371    33.48825472

    E(LUMO) :     0.15627065 au (symmetry 5)
  - E(HOMO) :    -0.85043011 au (symmetry 5)
  ------------------------------------------
    gap     :     1.00670076 au

 --- Writing SIRIFC interface file

 CPU and wall time for SCF :       0.240       0.242


                       .-----------------------------------.
                       | --- Final results from SIRIUS --- |
                       `-----------------------------------'


@    Spin multiplicity:           1
@    Spatial symmetry:            1 ( irrep  Ag  in D2h )
@    Total charge of molecule:    0

@    Final HF energy:            -128.546785545212                 
@    Nuclear repulsion:             0.000000000000
@    Electronic energy:          -128.546785545212

@    Final gradient norm:           0.000001217155

 
     Date and time (Linux)  : Wed Jan 11 14:14:28 2023
     Host name              : cn027                                   

File label for MO orbitals:  11Jan23   FOCKDIIS

 (Only coefficients > 0.0100 are printed.)

 Molecular orbitals for symmetry species 1  (Ag )
 ------------------------------------------------

    Orbital         1        2        3        4        5        6        7
   1 Ne_a:1s     1.0000   0.0001   0.0199  -0.0000   0.0000  -0.1162  -0.0000
   2 Ne_a:1s     0.0001   1.0004  -0.1265   0.0000  -0.0000  -0.9283  -0.0000
   3 Ne_a:1s     0.0000   0.0002   0.0462   0.0000  -0.0000  -0.2106  -0.0000
   4 Ne_a:1s    -0.0001  -0.0009  -0.2060   0.0000  -0.0000   0.9012  -0.0000
   5 Ne_a:1s     0.0001   0.0013   0.3514  -0.0000   0.0000  -2.2187   0.0000
   6 Ne_a:1s    -0.0001  -0.0022  -1.1118  -0.0000   0.0000   3.7964   0.0000
   7 Ne_a:1s     0.0001   0.0014   1.6437   0.0000   0.0000  -1.4036  -0.0000
   9 Ne_a:3d2+  -0.0000  -0.0000   0.0000  -0.0000  -0.0074   0.0000  -0.0131
  10 Ne_a:3d0   -0.0000   0.0000  -0.0000   0.0241  -0.0000  -0.0000  -0.0000
  11 Ne_a:3d2+   0.0000  -0.0000   0.0000  -0.0000   0.0241   0.0000   0.1144
  12 Ne_a:3d0    0.0000  -0.0000   0.0000  -0.1139   0.0000   0.0000   0.0000
  13 Ne_a:3d2+  -0.0000   0.0000  -0.0000   0.0000  -0.1139  -0.0000  -0.2340
  14 Ne_a:3d0   -0.0000   0.0000  -0.0000   0.2720  -0.0000  -0.0000  -0.0000
  15 Ne_a:3d2+   0.0000  -0.0000   0.0000  -0.0000   0.2720   0.0000   1.4713
  16 Ne_a:3d0    0.0000  -0.0000   0.0000  -1.1407   0.0000   0.0000   0.0000
  17 Ne_a:3d2+  -0.0000   0.0000  -0.0000  -0.0000  -1.1407  -0.0000  -0.7699

    Orbital         8        9       10       11       12
   1 Ne_a:1s    -0.0000  -0.0000   0.0000  -0.0000   0.3161
   2 Ne_a:1s    -0.0000  -0.0000   0.0000  -0.0000   0.1204
   3 Ne_a:1s    -0.0000  -0.0000   0.0000  -0.0000   0.8725
   4 Ne_a:1s    -0.0000  -0.0000   0.0000  -0.0000  -4.2638
   5 Ne_a:1s     0.0000   0.0000  -0.0000   0.0000   5.2299
   6 Ne_a:1s     0.0000   0.0000  -0.0000   0.0000  -2.9474
   7 Ne_a:1s     0.0000   0.0000  -0.0000   0.0000   0.7476
   8 Ne_a:3d0   -0.0131  -0.0000   0.0000  -0.0000  -0.0000
  10 Ne_a:3d0    0.1144  -0.0000   0.0000  -0.0000  -0.0000
  12 Ne_a:3d0   -0.2340   0.0000  -0.0000   0.0000   0.0000
  14 Ne_a:3d0    1.4713  -0.0000   0.0000  -0.0000  -0.0000
  16 Ne_a:3d0   -0.7699   0.0000  -0.0000   0.0000   0.0000
  18 Ne_a:5g0   -0.0000  -0.0000   0.0379  -0.0000  -0.0000
  19 Ne_a:5g2+   0.0000   0.0379  -0.0000   0.0000   0.0000
  20 Ne_a:5g4+  -0.0000  -0.0000   0.0000   0.0379  -0.0000
  21 Ne_a:5g0    0.0000   0.0000  -0.2520   0.0000   0.0000
  22 Ne_a:5g2+  -0.0000  -0.2520   0.0000  -0.0000  -0.0000
  23 Ne_a:5g4+   0.0000   0.0000  -0.0000  -0.2520   0.0000
  24 Ne_a:5g0   -0.0000  -0.0000   1.1361  -0.0000  -0.0000
  25 Ne_a:5g2+  -0.0000   1.1361   0.0000   0.0000  -0.0000
  26 Ne_a:5g4+  -0.0000  -0.0000   0.0000   1.1361  -0.0000

 Molecular orbitals for symmetry species 2  (B3u)
 ------------------------------------------------

    Orbital         1        2        3        4        5        6        7
   1 Ne_a:2px    0.9999   0.1582  -0.3817   0.0000  -0.0000   1.1188  -0.0000
   2 Ne_a:2px    0.0002  -0.0181  -0.0796  -0.0000   0.0000  -0.2718   0.0000
   3 Ne_a:2px   -0.0004   0.0487   0.2045  -0.0000   0.0000   0.9375   0.0000
   4 Ne_a:2px    0.0012  -0.1531  -0.7906  -0.0000   0.0000  -2.9338   0.0000
   5 Ne_a:2px   -0.0022   0.4700   2.0829  -0.0000   0.0000   1.4458   0.0000
   6 Ne_a:2px    0.0025  -1.2713  -0.9294  -0.0000   0.0000  -0.4829   0.0000
   7 Ne_a:4f1+   0.0000   0.0000  -0.0000   0.0000  -0.0153   0.0000  -0.0000
   8 Ne_a:4f3+  -0.0000  -0.0000   0.0000  -0.0153   0.0000  -0.0000  -0.0532
   9 Ne_a:4f1+  -0.0000  -0.0000   0.0000  -0.0000   0.0779  -0.0000   0.0000
  10 Ne_a:4f3+   0.0000   0.0000  -0.0000   0.0779  -0.0000   0.0000   0.2204
  11 Ne_a:4f1+   0.0000   0.0000  -0.0000   0.0000  -0.2849   0.0000  -0.0000
  12 Ne_a:4f3+  -0.0000  -0.0000   0.0000  -0.2849   0.0000  -0.0000  -1.4354
  13 Ne_a:4f1+   0.0000   0.0000  -0.0000   0.0000   1.1517   0.0000  -0.0000
  14 Ne_a:4f3+  -0.0000   0.0000  -0.0000   1.1517  -0.0000  -0.0000   0.6986

    Orbital         8        9       10       11
   1 Ne_a:2px   -0.0000   1.2058   0.0000   0.0000
   2 Ne_a:2px    0.0000   1.2640  -0.0000  -0.0000
   3 Ne_a:2px    0.0000  -3.2644  -0.0000  -0.0000
   4 Ne_a:2px    0.0000   1.5722  -0.0000  -0.0000
   5 Ne_a:2px    0.0000  -1.0152  -0.0000  -0.0000
   6 Ne_a:2px    0.0000   0.2461   0.0000   0.0000
   7 Ne_a:4f1+  -0.0532   0.0000   0.0000   0.0000
   9 Ne_a:4f1+   0.2204  -0.0000  -0.0000  -0.0000
  11 Ne_a:4f1+  -1.4354   0.0000   0.0000   0.0000
  13 Ne_a:4f1+   0.6986   0.0000  -0.0000  -0.0000
  15 Ne_a:6h1+   0.0000  -0.0000  -0.1933  -0.0000
  17 Ne_a:6h5+   0.0000  -0.0000  -0.0000  -0.1933
  18 Ne_a:6h1+   0.0000  -0.0000   1.0979   0.0000
  20 Ne_a:6h5+   0.0000   0.0000   0.0000   1.0979

 Molecular orbitals for symmetry species 3  (B2u)
 ------------------------------------------------

    Orbital         1        2        3        4        5        6        7
   1 Ne_a:2py    0.9999   0.1582  -0.3817  -0.0000   0.0000   1.1188   0.0000
   2 Ne_a:2py    0.0002  -0.0181  -0.0796   0.0000  -0.0000  -0.2718  -0.0000
   3 Ne_a:2py   -0.0004   0.0487   0.2045   0.0000  -0.0000   0.9375  -0.0000
   4 Ne_a:2py    0.0012  -0.1531  -0.7906   0.0000  -0.0000  -2.9338  -0.0000
   5 Ne_a:2py   -0.0022   0.4700   2.0829   0.0000  -0.0000   1.4458  -0.0000
   6 Ne_a:2py    0.0025  -1.2713  -0.9294   0.0000  -0.0000  -0.4829  -0.0000
   7 Ne_a:4f3-   0.0000   0.0000  -0.0000  -0.0153   0.0000   0.0000  -0.0532
   8 Ne_a:4f1-   0.0000   0.0000  -0.0000  -0.0000  -0.0153   0.0000   0.0000
   9 Ne_a:4f3-  -0.0000  -0.0000   0.0000   0.0779  -0.0000  -0.0000   0.2204
  10 Ne_a:4f1-  -0.0000  -0.0000   0.0000   0.0000   0.0779  -0.0000  -0.0000
  11 Ne_a:4f3-   0.0000   0.0000  -0.0000  -0.2849   0.0000   0.0000  -1.4354
  12 Ne_a:4f1-   0.0000   0.0000  -0.0000  -0.0000  -0.2849   0.0000   0.0000
  13 Ne_a:4f3-   0.0000  -0.0000   0.0000   1.1517  -0.0000   0.0000   0.6986
  14 Ne_a:4f1-  -0.0000  -0.0000   0.0000   0.0000   1.1517  -0.0000  -0.0000

    Orbital         8        9       10       11
   1 Ne_a:2py    0.0000   1.2058  -0.0000   0.0000
   2 Ne_a:2py   -0.0000   1.2640   0.0000   0.0000
   3 Ne_a:2py   -0.0000  -3.2644   0.0000  -0.0000
   4 Ne_a:2py   -0.0000   1.5722   0.0000  -0.0000
   5 Ne_a:2py    0.0000  -1.0152   0.0000  -0.0000
   6 Ne_a:2py   -0.0000   0.2461  -0.0000   0.0000
   8 Ne_a:4f1-   0.0532   0.0000  -0.0000   0.0000
  10 Ne_a:4f1-  -0.2204  -0.0000   0.0000  -0.0000
  12 Ne_a:4f1-   1.4354   0.0000  -0.0000   0.0000
  14 Ne_a:4f1-  -0.6986  -0.0000   0.0000  -0.0000
  15 Ne_a:6h5-  -0.0000  -0.0000  -0.1933  -0.0000
  16 Ne_a:6h3-  -0.0000  -0.0000   0.0000  -0.1933
  18 Ne_a:6h5-   0.0000   0.0000   1.0979   0.0000
  19 Ne_a:6h3-   0.0000   0.0000  -0.0000   1.0979

 Molecular orbitals for symmetry species 4  (B1g)
 ------------------------------------------------

    Orbital         1        2        3        4        5        6        7
   1 Ne_a:3d2-  -0.0074  -0.0131   0.0000   0.0000  -0.0814   0.0000   0.0000
   2 Ne_a:3d2-   0.0241   0.1144   0.0000   0.0000   0.1804   0.0000   0.0000
   3 Ne_a:3d2-  -0.1139  -0.2340   0.0000   0.0000  -1.6391   0.0000   0.0000
   4 Ne_a:3d2-   0.2720   1.4713   0.0000   0.0000   1.3439   0.0000   0.0000
   5 Ne_a:3d2-  -1.1407  -0.7699   0.0000   0.0000  -0.4504   0.0000   0.0000
   6 Ne_a:5g4-   0.0000   0.0000   0.0379   0.0000   0.0000   0.0000   0.1136
   7 Ne_a:5g2-   0.0000   0.0000   0.0000   0.0379   0.0000   0.1136   0.0000
   8 Ne_a:5g4-   0.0000   0.0000  -0.2520   0.0000   0.0000   0.0000  -1.3250
   9 Ne_a:5g2-   0.0000   0.0000   0.0000  -0.2520   0.0000  -1.3250   0.0000
  10 Ne_a:5g4-   0.0000   0.0000   1.1361   0.0000   0.0000   0.0000   0.6313
  11 Ne_a:5g2-   0.0000   0.0000   0.0000   1.1361   0.0000   0.6313   0.0000

    Orbital         8        9       10
   1 Ne_a:3d2-  -0.1114   0.0000   0.0000
   2 Ne_a:3d2-   1.6652   0.0000   0.0000
   3 Ne_a:3d2-  -1.6109   0.0000   0.0000
   4 Ne_a:3d2-   0.8017   0.0000   0.0000
   5 Ne_a:3d2-  -0.2440   0.0000   0.0000
   6 Ne_a:5g4-   0.0000   0.0000   1.1719
   7 Ne_a:5g2-   0.0000   1.1719   0.0000
   8 Ne_a:5g4-   0.0000   0.0000  -0.6449
   9 Ne_a:5g2-   0.0000  -0.6449   0.0000
  10 Ne_a:5g4-   0.0000   0.0000   0.2566
  11 Ne_a:5g2-   0.0000   0.2566   0.0000

 Molecular orbitals for symmetry species 5  (B1u)
 ------------------------------------------------

    Orbital         1        2        3        4        5        6        7
   1 Ne_a:2pz    0.9999   0.1582  -0.3817   0.0000  -0.0000   1.1188  -0.0000
   2 Ne_a:2pz    0.0002  -0.0181  -0.0796  -0.0000   0.0000  -0.2718   0.0000
   3 Ne_a:2pz   -0.0004   0.0487   0.2045  -0.0000   0.0000   0.9375   0.0000
   4 Ne_a:2pz    0.0012  -0.1531  -0.7906  -0.0000   0.0000  -2.9338   0.0000
   5 Ne_a:2pz   -0.0022   0.4700   2.0829  -0.0000   0.0000   1.4458   0.0000
   6 Ne_a:2pz    0.0025  -1.2713  -0.9294  -0.0000   0.0000  -0.4829   0.0000
   7 Ne_a:4f0   -0.0000  -0.0000   0.0000  -0.0153   0.0000  -0.0000   0.0000
   8 Ne_a:4f2+  -0.0000  -0.0000   0.0000  -0.0000  -0.0153  -0.0000  -0.0532
   9 Ne_a:4f0    0.0000   0.0000  -0.0000   0.0779  -0.0000   0.0000  -0.0000
  10 Ne_a:4f2+   0.0000   0.0000  -0.0000   0.0000   0.0779   0.0000   0.2204
  11 Ne_a:4f0   -0.0000  -0.0000   0.0000  -0.2849   0.0000  -0.0000   0.0000
  12 Ne_a:4f2+  -0.0000  -0.0000   0.0000  -0.0000  -0.2849  -0.0000  -1.4354
  13 Ne_a:4f0   -0.0000   0.0000   0.0000   1.1517  -0.0000  -0.0000  -0.0000
  14 Ne_a:4f2+   0.0000   0.0000  -0.0000   0.0000   1.1517   0.0000   0.6986

    Orbital         8        9       10       11
   1 Ne_a:2pz    0.0000   1.2058  -0.0000   0.0000
   2 Ne_a:2pz   -0.0000   1.2640   0.0000  -0.0000
   3 Ne_a:2pz   -0.0000  -3.2644   0.0000  -0.0000
   4 Ne_a:2pz   -0.0000   1.5722   0.0000  -0.0000
   5 Ne_a:2pz   -0.0000  -1.0152   0.0000  -0.0000
   6 Ne_a:2pz    0.0000   0.2461  -0.0000   0.0000
   7 Ne_a:4f0    0.0532  -0.0000   0.0000  -0.0000
   9 Ne_a:4f0   -0.2204   0.0000  -0.0000   0.0000
  11 Ne_a:4f0    1.4354  -0.0000   0.0000  -0.0000
  13 Ne_a:4f0   -0.6986  -0.0000  -0.0000   0.0000
  15 Ne_a:6h0    0.0000   0.0000  -0.1933   0.0000
  17 Ne_a:6h4+   0.0000   0.0000  -0.0000  -0.1933
  18 Ne_a:6h0    0.0000   0.0000   1.0979  -0.0000
  20 Ne_a:6h4+  -0.0000  -0.0000   0.0000   1.0979

 Molecular orbitals for symmetry species 6  (B2g)
 ------------------------------------------------

    Orbital         1        2        3        4        5        6        7
   1 Ne_a:3d1+  -0.0074  -0.0131   0.0000   0.0000  -0.0814   0.0000   0.0000
   2 Ne_a:3d1+   0.0241   0.1144   0.0000   0.0000   0.1804   0.0000   0.0000
   3 Ne_a:3d1+  -0.1139  -0.2340   0.0000   0.0000  -1.6391   0.0000   0.0000
   4 Ne_a:3d1+   0.2720   1.4713   0.0000   0.0000   1.3439   0.0000   0.0000
   5 Ne_a:3d1+  -1.1407  -0.7699   0.0000   0.0000  -0.4504   0.0000   0.0000
   6 Ne_a:5g1+   0.0000   0.0000   0.0000   0.0379   0.0000   0.0000   0.1136
   7 Ne_a:5g3+   0.0000   0.0000   0.0379   0.0000   0.0000   0.1136   0.0000
   8 Ne_a:5g1+   0.0000   0.0000   0.0000  -0.2520   0.0000   0.0000  -1.3250
   9 Ne_a:5g3+   0.0000   0.0000  -0.2520   0.0000   0.0000  -1.3250   0.0000
  10 Ne_a:5g1+   0.0000   0.0000   0.0000   1.1361   0.0000   0.0000   0.6313
  11 Ne_a:5g3+   0.0000   0.0000   1.1361   0.0000   0.0000   0.6313   0.0000

    Orbital         8        9       10
   1 Ne_a:3d1+  -0.1114   0.0000   0.0000
   2 Ne_a:3d1+   1.6652   0.0000   0.0000
   3 Ne_a:3d1+  -1.6109   0.0000   0.0000
   4 Ne_a:3d1+   0.8017   0.0000   0.0000
   5 Ne_a:3d1+  -0.2440   0.0000   0.0000
   6 Ne_a:5g1+   0.0000   0.0000   1.1719
   7 Ne_a:5g3+   0.0000   1.1719   0.0000
   8 Ne_a:5g1+   0.0000   0.0000  -0.6449
   9 Ne_a:5g3+   0.0000  -0.6449   0.0000
  10 Ne_a:5g1+   0.0000   0.0000   0.2566
  11 Ne_a:5g3+   0.0000   0.2566   0.0000

 Molecular orbitals for symmetry species 7  (B3g)
 ------------------------------------------------

    Orbital         1        2        3        4        5        6        7
   1 Ne_a:3d1-  -0.0074  -0.0131   0.0000   0.0000  -0.0814   0.0000   0.0000
   2 Ne_a:3d1-   0.0241   0.1144   0.0000   0.0000   0.1804   0.0000   0.0000
   3 Ne_a:3d1-  -0.1139  -0.2340   0.0000   0.0000  -1.6391   0.0000   0.0000
   4 Ne_a:3d1-   0.2720   1.4713   0.0000   0.0000   1.3439   0.0000   0.0000
   5 Ne_a:3d1-  -1.1407  -0.7699   0.0000   0.0000  -0.4504   0.0000   0.0000
   6 Ne_a:5g3-   0.0000   0.0000   0.0379   0.0000   0.0000   0.1136   0.0000
   7 Ne_a:5g1-   0.0000   0.0000   0.0000   0.0379   0.0000   0.0000   0.1136
   8 Ne_a:5g3-   0.0000   0.0000  -0.2520   0.0000   0.0000  -1.3250   0.0000
   9 Ne_a:5g1-   0.0000   0.0000   0.0000  -0.2520   0.0000   0.0000  -1.3250
  10 Ne_a:5g3-   0.0000   0.0000   1.1361   0.0000   0.0000   0.6313   0.0000
  11 Ne_a:5g1-   0.0000   0.0000   0.0000   1.1361   0.0000   0.0000   0.6313

    Orbital         8        9       10
   1 Ne_a:3d1-  -0.1114   0.0000   0.0000
   2 Ne_a:3d1-   1.6652   0.0000   0.0000
   3 Ne_a:3d1-  -1.6109   0.0000   0.0000
   4 Ne_a:3d1-   0.8017   0.0000   0.0000
   5 Ne_a:3d1-  -0.2440   0.0000   0.0000
   6 Ne_a:5g3-   0.0000   1.1719   0.0000
   7 Ne_a:5g1-   0.0000   0.0000   1.1719
   8 Ne_a:5g3-   0.0000  -0.6449   0.0000
   9 Ne_a:5g1-   0.0000   0.0000  -0.6449
  10 Ne_a:5g3-   0.0000   0.2566   0.0000
  11 Ne_a:5g1-   0.0000   0.0000   0.2566

 Molecular orbitals for symmetry species 8  (Au )
 ------------------------------------------------

    Orbital         1        2        3        4        5        6        7
   1 Ne_a:4f2-  -0.0153   0.0532   0.0000   0.0000  -0.1477   0.0000   0.0000
   2 Ne_a:4f2-   0.0779  -0.2204   0.0000   0.0000   1.4549   0.0000   0.0000
   3 Ne_a:4f2-  -0.2849   1.4354   0.0000   0.0000  -1.0011   0.0000   0.0000
   4 Ne_a:4f2-   1.1517  -0.6986   0.0000   0.0000   0.3570   0.0000   0.0000
   5 Ne_a:6h4-   0.0000   0.0000  -0.1933   0.0000   0.0000   1.2035   0.0000
   6 Ne_a:6h2-   0.0000   0.0000   0.0000  -0.1933   0.0000   0.0000   1.2035
   7 Ne_a:6h4-   0.0000   0.0000   1.0979   0.0000   0.0000  -0.5297   0.0000
   8 Ne_a:6h2-   0.0000   0.0000   0.0000   1.0979   0.0000   0.0000  -0.5297

    Orbital         8
   1 Ne_a:4f2-  -1.3525
   2 Ne_a:4f2-   1.0328
   3 Ne_a:4f2-  -0.4968
   4 Ne_a:4f2-   0.1720

  Total CPU  time used in SIRIUS :   0.25 seconds
  Total wall time used in SIRIUS :   0.25 seconds

 
     Date and time (Linux)  : Wed Jan 11 14:14:28 2023
     Host name              : cn027                                   


                     .---------------------------------------.
                     | End of Wave Function Section (SIRIUS) |
                     `---------------------------------------'



                 .------------------------------------------------.
                 | Starting in Dynamic Property Section (RESPONS) |
                 `------------------------------------------------'


 ----------------------------------------------------------------------------------------
  RESPONSE  -  an MCSCF, MC-srDFT, DFT, SOPPA and SOPPA-srDFT response property program
 ----------------------------------------------------------------------------------------


 -------- OUTPUT FROM RESPONSE INPUT PROCESSING --------




 Linear Response calculation
 ---------------------------

 Print level                                    : IPRLR  =   2
 Maximum number of iterations                   : MAXITL =  60
 Threshold for relative convergence             : THCLR  = 1.000D-03
 Maximum iterations in optimal orbital algorithm: MAXITO =   5

  9 B-frequencies  0.000000D+00  4.612212D-02  9.224425D-02  1.383664D-01  1.844885D-01
  2.306106D-01  2.767327D-01  3.228549D-01  3.689770D-01

    1 second order properties calculated with symmetry no.    2 and labels:

          XDIPLEN 

    1 second order properties calculated with symmetry no.    3 and labels:

          YDIPLEN 

    1 second order properties calculated with symmetry no.    5 and labels:

          ZDIPLEN 


   SCF energy         :     -128.546785545212146
 -- inactive part     :     -128.546785545212146
 -- nuclear repulsion :        0.000000000000000


                     ***************************************
                     *** RHF response calculation (TDHF) ***
                     ***************************************

 ----------------------------------------------------------------
 ----- Linear response calculation
 ----- Symmetry of excitation/property operator(s)    2  ( B3u)
 ----------------------------------------------------------------

 Number of excitations of this symmetry            0
 Number of response properties of this symmetry    1
 Number of C6/C8 properties of this symmetry       0


 Perturbation symmetry.     KSYMOP:           2
 Perturbation spin symmetry.TRPLET:           F
 Orbital variables.         KZWOPT:          84
 Configuration variables.   KZCONF:           0
 Total number of variables. KZVAR :          84


 RSPLR -- linear response calculation for symmetry 2  ( B3u)
 RSPLR -- operator label : XDIPLEN 
 RSPLR -- operator spin  :   0
 RSPLR -- frequencies    :     0.000000  0.046122  0.092244  0.138366  0.184488
                               0.230611  0.276733  0.322855  0.368977



 ---  SOLVING SETS OF LINEAR EQUATIONS FOR LINEAR RESPONSE PROPERTIES ---

 Operator symmetry = 2  ( B3u); triplet =   F

RSPORT:    1 out of    9 new trial vectors linear dependent

 ** RSPCTL MICROITERATION NUMBER    1

       No.  Residual tot.,    conf., and orb.    Bnorm      Frequency 
      ----------------------------------------------------------------
         1    4.75401D-01  0.00D+00  4.75D-01  9.67D-01    0.00000D+00
         2    4.76207D-01  0.00D+00  4.76D-01  9.71D-01    4.61221D-02
         3    4.78656D-01  0.00D+00  4.79D-01  9.82D-01    9.22442D-02
         4    4.82844D-01  0.00D+00  4.83D-01  1.00D+00    1.38366D-01
         5    4.88942D-01  0.00D+00  4.89D-01  1.03D+00    1.84488D-01
         6    4.97223D-01  0.00D+00  4.97D-01  1.07D+00    2.30611D-01
         7    5.08102D-01  0.00D+00  5.08D-01  1.12D+00    2.76733D-01
         8    5.22213D-01  0.00D+00  5.22D-01  1.18D+00    3.22855D-01
         9    5.40548D-01  0.00D+00  5.41D-01  1.27D+00    3.68977D-01

 ** RSPCTL MICROITERATION NUMBER    2

       No.  Residual tot.,    conf., and orb.    Bnorm      Frequency 
      ----------------------------------------------------------------
         1    2.71579D-03  0.00D+00  2.72D-03  9.72D-01    0.00000D+00
         2    2.72520D-03  0.00D+00  2.73D-03  9.76D-01    4.61221D-02
         3    2.75395D-03  0.00D+00  2.75D-03  9.87D-01    9.22442D-02
         4    2.80365D-03  0.00D+00  2.80D-03  1.01D+00    1.38366D-01
         5    2.87728D-03  0.00D+00  2.88D-03  1.03D+00    1.84488D-01
         6    2.97959D-03  0.00D+00  2.98D-03  1.07D+00    2.30611D-01
         7    3.11793D-03  0.00D+00  3.12D-03  1.12D+00    2.76733D-01
         8    3.30382D-03  0.00D+00  3.30D-03  1.19D+00    3.22855D-01
         9    3.55571D-03  0.00D+00  3.56D-03  1.28D+00    3.68977D-01

 ** RSPCTL MICROITERATION NUMBER    3

       No.  Residual tot.,    conf., and orb.    Bnorm      Frequency 
      ----------------------------------------------------------------
         1    7.80802D-05  0.00D+00  7.81D-05  9.72D-01    0.00000D+00
         2    7.89698D-05  0.00D+00  7.90D-05  9.76D-01    4.61221D-02
         3    8.16409D-05  0.00D+00  8.16D-05  9.87D-01    9.22442D-02
         4    8.61095D-05  0.00D+00  8.61D-05  1.01D+00    1.38366D-01
         5    9.24266D-05  0.00D+00  9.24D-05  1.03D+00    1.84488D-01
         6    1.00711D-04  0.00D+00  1.01D-04  1.07D+00    2.30611D-01
         7    1.11194D-04  0.00D+00  1.11D-04  1.12D+00    2.76733D-01
         8    1.24278D-04  0.00D+00  1.24D-04  1.19D+00    3.22855D-01
         9    1.40644D-04  0.00D+00  1.41D-04  1.28D+00    3.68977D-01

 *** THE REQUESTED    9 SOLUTION VECTORS CONVERGED

 Convergence of RSP solution vectors, threshold = 1.00D-03
 ---------------------------------------------------------------
 (dimension of paired reduced space:   52)
 RSP solution vector no.    1; norm of residual   8.03D-05
 RSP solution vector no.    2; norm of residual   8.09D-05
 RSP solution vector no.    3; norm of residual   8.27D-05
 RSP solution vector no.    4; norm of residual   8.56D-05
 RSP solution vector no.    5; norm of residual   8.94D-05
 RSP solution vector no.    6; norm of residual   9.39D-05
 RSP solution vector no.    7; norm of residual   9.90D-05
 RSP solution vector no.    8; norm of residual   1.04D-04
 RSP solution vector no.    9; norm of residual   1.10D-04

 *** RSPCTL MICROITERATIONS CONVERGED


           Final output of second order properties from linear response
           ------------------------------------------------------------


@ Spin symmetry of operators: singlet

 Note that minus the linear response function: - << A; B >>(omega) is printed.
 The results are of quadratic accuracy using Sellers formula.

@ FREQUENCY INDEPENDENT SECOND ORDER PROPERTIES

@ -<< XDIPLEN  ; XDIPLEN  >> =  2.363141010534E+00

@ FREQUENCY DEPENDENT SECOND ORDER PROPERTIES WITH FREQUENCY :

@    a.u.:  4.6122125D-02
@    cm-1:  1.0122636D+04
@    eV  :  1.2550469D+00
@  kJ/mol:  1.2109362D+02
@    nm  :  9.8788495D+02

@ -<< XDIPLEN  ; XDIPLEN  >> =  2.367415499660E+00

@ FREQUENCY DEPENDENT SECOND ORDER PROPERTIES WITH FREQUENCY :

@    a.u.:  9.2244250D-02
@    cm-1:  2.0245273D+04
@    eV  :  2.5100937D+00
@  kJ/mol:  2.4218724D+02
@    nm  :  4.9394247D+02

@ -<< XDIPLEN  ; XDIPLEN  >> =  2.380388244882E+00

@ FREQUENCY DEPENDENT SECOND ORDER PROPERTIES WITH FREQUENCY :

@    a.u.:  1.3836637D-01
@    cm-1:  3.0367909D+04
@    eV  :  3.7651406D+00
@  kJ/mol:  3.6328086D+02
@    nm  :  3.2929498D+02

@ -<< XDIPLEN  ; XDIPLEN  >> =  2.402523704122E+00

@ FREQUENCY DEPENDENT SECOND ORDER PROPERTIES WITH FREQUENCY :

@    a.u.:  1.8448850D-01
@    cm-1:  4.0490545D+04
@    eV  :  5.0201875D+00
@  kJ/mol:  4.8437448D+02
@    nm  :  2.4697124D+02

@ -<< XDIPLEN  ; XDIPLEN  >> =  2.434655334551E+00

@ FREQUENCY DEPENDENT SECOND ORDER PROPERTIES WITH FREQUENCY :

@    a.u.:  2.3061063D-01
@    cm-1:  5.0613181D+04
@    eV  :  6.2752343D+00
@  kJ/mol:  6.0546810D+02
@    nm  :  1.9757699D+02

@ -<< XDIPLEN  ; XDIPLEN  >> =  2.478090080338E+00

@ FREQUENCY DEPENDENT SECOND ORDER PROPERTIES WITH FREQUENCY :

@    a.u.:  2.7673275D-01
@    cm-1:  6.0735818D+04
@    eV  :  7.5302812D+00
@  kJ/mol:  7.2656172D+02
@    nm  :  1.6464749D+02

@ -<< XDIPLEN  ; XDIPLEN  >> =  2.534792503748E+00

@ FREQUENCY DEPENDENT SECOND ORDER PROPERTIES WITH FREQUENCY :

@    a.u.:  3.2285487D-01
@    cm-1:  7.0858454D+04
@    eV  :  8.7853280D+00
@  kJ/mol:  8.4765534D+02
@    nm  :  1.4112642D+02

@ -<< XDIPLEN  ; XDIPLEN  >> =  2.607707572165E+00

@ FREQUENCY DEPENDENT SECOND ORDER PROPERTIES WITH FREQUENCY :

@    a.u.:  3.6897700D-01
@    cm-1:  8.0981090D+04
@    eV  :  1.0040375D+01
@  kJ/mol:  9.6874896D+02
@    nm  :  1.2348562D+02

@ -<< XDIPLEN  ; XDIPLEN  >> =  2.701346155129E+00


 Time used in linear response calculation is      0.94 CPU seconds for symmetry 2
 ----------------------------------------------------------------
 ----- Linear response calculation
 ----- Symmetry of excitation/property operator(s)    3  ( B2u)
 ----------------------------------------------------------------

 Number of excitations of this symmetry            0
 Number of response properties of this symmetry    1
 Number of C6/C8 properties of this symmetry       0


 Perturbation symmetry.     KSYMOP:           3
 Perturbation spin symmetry.TRPLET:           F
 Orbital variables.         KZWOPT:          84
 Configuration variables.   KZCONF:           0
 Total number of variables. KZVAR :          84


 RSPLR -- linear response calculation for symmetry 3  ( B2u)
 RSPLR -- operator label : YDIPLEN 
 RSPLR -- operator spin  :   0
 RSPLR -- frequencies    :     0.000000  0.046122  0.092244  0.138366  0.184488
                               0.230611  0.276733  0.322855  0.368977



 ---  SOLVING SETS OF LINEAR EQUATIONS FOR LINEAR RESPONSE PROPERTIES ---

 Operator symmetry = 3  ( B2u); triplet =   F

RSPORT:    1 out of    9 new trial vectors linear dependent

 ** RSPCTL MICROITERATION NUMBER    1

       No.  Residual tot.,    conf., and orb.    Bnorm      Frequency 
      ----------------------------------------------------------------
         1    5.54995D-01  0.00D+00  5.55D-01  9.67D-01    0.00000D+00
         2    5.55934D-01  0.00D+00  5.56D-01  9.71D-01    4.61221D-02
         3    5.58781D-01  0.00D+00  5.59D-01  9.82D-01    9.22442D-02
         4    5.63642D-01  0.00D+00  5.64D-01  1.00D+00    1.38366D-01
         5    5.70701D-01  0.00D+00  5.71D-01  1.03D+00    1.84488D-01
         6    5.80255D-01  0.00D+00  5.80D-01  1.07D+00    2.30611D-01
         7    5.92747D-01  0.00D+00  5.93D-01  1.12D+00    2.76733D-01
         8    6.08853D-01  0.00D+00  6.09D-01  1.18D+00    3.22855D-01
         9    6.29617D-01  0.00D+00  6.30D-01  1.27D+00    3.68977D-01

 ** RSPCTL MICROITERATION NUMBER    2

       No.  Residual tot.,    conf., and orb.    Bnorm      Frequency 
      ----------------------------------------------------------------
         1    4.07451D-03  0.00D+00  4.07D-03  9.72D-01    0.00000D+00
         2    4.08986D-03  0.00D+00  4.09D-03  9.76D-01    4.61221D-02
         3    4.13629D-03  0.00D+00  4.14D-03  9.87D-01    9.22442D-02
         4    4.21501D-03  0.00D+00  4.22D-03  1.01D+00    1.38366D-01
         5    4.32818D-03  0.00D+00  4.33D-03  1.03D+00    1.84488D-01
         6    4.47931D-03  0.00D+00  4.48D-03  1.07D+00    2.30611D-01
         7    4.67387D-03  0.00D+00  4.67D-03  1.12D+00    2.76733D-01
         8    4.92036D-03  0.00D+00  4.92D-03  1.19D+00    3.22855D-01
         9    5.23247D-03  0.00D+00  5.23D-03  1.28D+00    3.68977D-01

 ** RSPCTL MICROITERATION NUMBER    3

       No.  Residual tot.,    conf., and orb.    Bnorm      Frequency 
      ----------------------------------------------------------------
         1    1.82362D-04  0.00D+00  1.82D-04  9.72D-01    0.00000D+00
         2    1.83513D-04  0.00D+00  1.84D-04  9.76D-01    4.61221D-02
         3    1.86994D-04  0.00D+00  1.87D-04  9.87D-01    9.22442D-02
         4    1.92899D-04  0.00D+00  1.93D-04  1.01D+00    1.38366D-01
         5    2.01397D-04  0.00D+00  2.01D-04  1.03D+00    1.84488D-01
         6    2.12754D-04  0.00D+00  2.13D-04  1.07D+00    2.30611D-01
         7    2.27380D-04  0.00D+00  2.27D-04  1.12D+00    2.76733D-01
         8    2.45889D-04  0.00D+00  2.46D-04  1.19D+00    3.22855D-01
         9    2.69221D-04  0.00D+00  2.69D-04  1.28D+00    3.68977D-01

 *** THE REQUESTED    9 SOLUTION VECTORS CONVERGED

 Convergence of RSP solution vectors, threshold = 1.00D-03
 ---------------------------------------------------------------
 (dimension of paired reduced space:   52)
 RSP solution vector no.    1; norm of residual   1.88D-04
 RSP solution vector no.    2; norm of residual   1.88D-04
 RSP solution vector no.    3; norm of residual   1.89D-04
 RSP solution vector no.    4; norm of residual   1.92D-04
 RSP solution vector no.    5; norm of residual   1.95D-04
 RSP solution vector no.    6; norm of residual   1.98D-04
 RSP solution vector no.    7; norm of residual   2.02D-04
 RSP solution vector no.    8; norm of residual   2.07D-04
 RSP solution vector no.    9; norm of residual   2.10D-04

 *** RSPCTL MICROITERATIONS CONVERGED


           Final output of second order properties from linear response
           ------------------------------------------------------------


@ Spin symmetry of operators: singlet

 Note that minus the linear response function: - << A; B >>(omega) is printed.
 The results are of quadratic accuracy using Sellers formula.

@ FREQUENCY INDEPENDENT SECOND ORDER PROPERTIES

@ -<< YDIPLEN  ; YDIPLEN  >> =  2.363141009695E+00

@ FREQUENCY DEPENDENT SECOND ORDER PROPERTIES WITH FREQUENCY :

@    a.u.:  4.6122125D-02
@    cm-1:  1.0122636D+04
@    eV  :  1.2550469D+00
@  kJ/mol:  1.2109362D+02
@    nm  :  9.8788495D+02

@ -<< YDIPLEN  ; YDIPLEN  >> =  2.367415498808E+00

@ FREQUENCY DEPENDENT SECOND ORDER PROPERTIES WITH FREQUENCY :

@    a.u.:  9.2244250D-02
@    cm-1:  2.0245273D+04
@    eV  :  2.5100937D+00
@  kJ/mol:  2.4218724D+02
@    nm  :  4.9394247D+02

@ -<< YDIPLEN  ; YDIPLEN  >> =  2.380388243988E+00

@ FREQUENCY DEPENDENT SECOND ORDER PROPERTIES WITH FREQUENCY :

@    a.u.:  1.3836637D-01
@    cm-1:  3.0367909D+04
@    eV  :  3.7651406D+00
@  kJ/mol:  3.6328086D+02
@    nm  :  3.2929498D+02

@ -<< YDIPLEN  ; YDIPLEN  >> =  2.402523703156E+00

@ FREQUENCY DEPENDENT SECOND ORDER PROPERTIES WITH FREQUENCY :

@    a.u.:  1.8448850D-01
@    cm-1:  4.0490545D+04
@    eV  :  5.0201875D+00
@  kJ/mol:  4.8437448D+02
@    nm  :  2.4697124D+02

@ -<< YDIPLEN  ; YDIPLEN  >> =  2.434655333476E+00

@ FREQUENCY DEPENDENT SECOND ORDER PROPERTIES WITH FREQUENCY :

@    a.u.:  2.3061063D-01
@    cm-1:  5.0613181D+04
@    eV  :  6.2752343D+00
@  kJ/mol:  6.0546810D+02
@    nm  :  1.9757699D+02

@ -<< YDIPLEN  ; YDIPLEN  >> =  2.478090079111E+00

@ FREQUENCY DEPENDENT SECOND ORDER PROPERTIES WITH FREQUENCY :

@    a.u.:  2.7673275D-01
@    cm-1:  6.0735818D+04
@    eV  :  7.5302812D+00
@  kJ/mol:  7.2656172D+02
@    nm  :  1.6464749D+02

@ -<< YDIPLEN  ; YDIPLEN  >> =  2.534792502311E+00

@ FREQUENCY DEPENDENT SECOND ORDER PROPERTIES WITH FREQUENCY :

@    a.u.:  3.2285487D-01
@    cm-1:  7.0858454D+04
@    eV  :  8.7853280D+00
@  kJ/mol:  8.4765534D+02
@    nm  :  1.4112642D+02

@ -<< YDIPLEN  ; YDIPLEN  >> =  2.607707570442E+00

@ FREQUENCY DEPENDENT SECOND ORDER PROPERTIES WITH FREQUENCY :

@    a.u.:  3.6897700D-01
@    cm-1:  8.0981090D+04
@    eV  :  1.0040375D+01
@  kJ/mol:  9.6874896D+02
@    nm  :  1.2348562D+02

@ -<< YDIPLEN  ; YDIPLEN  >> =  2.701346153013E+00


 Time used in linear response calculation is      0.90 CPU seconds for symmetry 3
 ----------------------------------------------------------------
 ----- Linear response calculation
 ----- Symmetry of excitation/property operator(s)    5  ( B1u)
 ----------------------------------------------------------------

 Number of excitations of this symmetry            0
 Number of response properties of this symmetry    1
 Number of C6/C8 properties of this symmetry       0


 Perturbation symmetry.     KSYMOP:           5
 Perturbation spin symmetry.TRPLET:           F
 Orbital variables.         KZWOPT:          84
 Configuration variables.   KZCONF:           0
 Total number of variables. KZVAR :          84


 RSPLR -- linear response calculation for symmetry 5  ( B1u)
 RSPLR -- operator label : ZDIPLEN 
 RSPLR -- operator spin  :   0
 RSPLR -- frequencies    :     0.000000  0.046122  0.092244  0.138366  0.184488
                               0.230611  0.276733  0.322855  0.368977



 ---  SOLVING SETS OF LINEAR EQUATIONS FOR LINEAR RESPONSE PROPERTIES ---

 Operator symmetry = 5  ( B1u); triplet =   F

RSPORT:    1 out of    9 new trial vectors linear dependent

 ** RSPCTL MICROITERATION NUMBER    1

       No.  Residual tot.,    conf., and orb.    Bnorm      Frequency 
      ----------------------------------------------------------------
         1    4.57968D-01  0.00D+00  4.58D-01  9.67D-01    0.00000D+00
         2    4.58702D-01  0.00D+00  4.59D-01  9.71D-01    4.61221D-02
         3    4.60933D-01  0.00D+00  4.61D-01  9.82D-01    9.22442D-02
         4    4.64746D-01  0.00D+00  4.65D-01  1.00D+00    1.38366D-01
         5    4.70293D-01  0.00D+00  4.70D-01  1.03D+00    1.84488D-01
         6    4.77818D-01  0.00D+00  4.78D-01  1.07D+00    2.30611D-01
         7    4.87690D-01  0.00D+00  4.88D-01  1.12D+00    2.76733D-01
         8    5.00471D-01  0.00D+00  5.00D-01  1.18D+00    3.22855D-01
         9    5.17040D-01  0.00D+00  5.17D-01  1.27D+00    3.68977D-01

 ** RSPCTL MICROITERATION NUMBER    2

       No.  Residual tot.,    conf., and orb.    Bnorm      Frequency 
      ----------------------------------------------------------------
         1    3.42131D-03  0.00D+00  3.42D-03  9.72D-01    0.00000D+00
         2    3.43917D-03  0.00D+00  3.44D-03  9.76D-01    4.61221D-02
         3    3.49334D-03  0.00D+00  3.49D-03  9.87D-01    9.22442D-02
         4    3.58577D-03  0.00D+00  3.59D-03  1.01D+00    1.38366D-01
         5    3.71999D-03  0.00D+00  3.72D-03  1.03D+00    1.84488D-01
         6    3.90167D-03  0.00D+00  3.90D-03  1.07D+00    2.30611D-01
         7    4.13963D-03  0.00D+00  4.14D-03  1.12D+00    2.76733D-01
         8    4.44755D-03  0.00D+00  4.45D-03  1.19D+00    3.22855D-01
         9    4.84716D-03  0.00D+00  4.85D-03  1.28D+00    3.68977D-01
RSPORT:    1 out of    9 new trial vectors linear dependent

 ** RSPCTL MICROITERATION NUMBER    3

       No.  Residual tot.,    conf., and orb.    Bnorm      Frequency 
      ----------------------------------------------------------------
         1    1.07183D-04  0.00D+00  1.07D-04  9.72D-01    0.00000D+00
         2    1.07678D-04  0.00D+00  1.08D-04  9.76D-01    4.61221D-02
         3    1.09181D-04  0.00D+00  1.09D-04  9.87D-01    9.22442D-02
         4    1.11743D-04  0.00D+00  1.12D-04  1.01D+00    1.38366D-01
         5    1.15459D-04  0.00D+00  1.15D-04  1.03D+00    1.84488D-01
         6    1.20479D-04  0.00D+00  1.20D-04  1.07D+00    2.30611D-01
         7    1.27028D-04  0.00D+00  1.27D-04  1.12D+00    2.76733D-01
         8    1.35450D-04  0.00D+00  1.35D-04  1.19D+00    3.22855D-01
         9    1.46275D-04  0.00D+00  1.46D-04  1.28D+00    3.68977D-01

 *** THE REQUESTED    9 SOLUTION VECTORS CONVERGED

 Convergence of RSP solution vectors, threshold = 1.00D-03
 ---------------------------------------------------------------
 (dimension of paired reduced space:   50)
 RSP solution vector no.    1; norm of residual   1.10D-04
 RSP solution vector no.    2; norm of residual   1.10D-04
 RSP solution vector no.    3; norm of residual   1.11D-04
 RSP solution vector no.    4; norm of residual   1.11D-04
 RSP solution vector no.    5; norm of residual   1.12D-04
 RSP solution vector no.    6; norm of residual   1.12D-04
 RSP solution vector no.    7; norm of residual   1.13D-04
 RSP solution vector no.    8; norm of residual   1.14D-04
 RSP solution vector no.    9; norm of residual   1.14D-04

 *** RSPCTL MICROITERATIONS CONVERGED


           Final output of second order properties from linear response
           ------------------------------------------------------------


@ Spin symmetry of operators: singlet

 Note that minus the linear response function: - << A; B >>(omega) is printed.
 The results are of quadratic accuracy using Sellers formula.

@ FREQUENCY INDEPENDENT SECOND ORDER PROPERTIES

@ -<< ZDIPLEN  ; ZDIPLEN  >> =  2.363141010374E+00

@ FREQUENCY DEPENDENT SECOND ORDER PROPERTIES WITH FREQUENCY :

@    a.u.:  4.6122125D-02
@    cm-1:  1.0122636D+04
@    eV  :  1.2550469D+00
@  kJ/mol:  1.2109362D+02
@    nm  :  9.8788495D+02

@ -<< ZDIPLEN  ; ZDIPLEN  >> =  2.367415499500E+00

@ FREQUENCY DEPENDENT SECOND ORDER PROPERTIES WITH FREQUENCY :

@    a.u.:  9.2244250D-02
@    cm-1:  2.0245273D+04
@    eV  :  2.5100937D+00
@  kJ/mol:  2.4218724D+02
@    nm  :  4.9394247D+02

@ -<< ZDIPLEN  ; ZDIPLEN  >> =  2.380388244722E+00

@ FREQUENCY DEPENDENT SECOND ORDER PROPERTIES WITH FREQUENCY :

@    a.u.:  1.3836637D-01
@    cm-1:  3.0367909D+04
@    eV  :  3.7651406D+00
@  kJ/mol:  3.6328086D+02
@    nm  :  3.2929498D+02

@ -<< ZDIPLEN  ; ZDIPLEN  >> =  2.402523703962E+00

@ FREQUENCY DEPENDENT SECOND ORDER PROPERTIES WITH FREQUENCY :

@    a.u.:  1.8448850D-01
@    cm-1:  4.0490545D+04
@    eV  :  5.0201875D+00
@  kJ/mol:  4.8437448D+02
@    nm  :  2.4697124D+02

@ -<< ZDIPLEN  ; ZDIPLEN  >> =  2.434655334391E+00

@ FREQUENCY DEPENDENT SECOND ORDER PROPERTIES WITH FREQUENCY :

@    a.u.:  2.3061063D-01
@    cm-1:  5.0613181D+04
@    eV  :  6.2752343D+00
@  kJ/mol:  6.0546810D+02
@    nm  :  1.9757699D+02

@ -<< ZDIPLEN  ; ZDIPLEN  >> =  2.478090080180E+00

@ FREQUENCY DEPENDENT SECOND ORDER PROPERTIES WITH FREQUENCY :

@    a.u.:  2.7673275D-01
@    cm-1:  6.0735818D+04
@    eV  :  7.5302812D+00
@  kJ/mol:  7.2656172D+02
@    nm  :  1.6464749D+02

@ -<< ZDIPLEN  ; ZDIPLEN  >> =  2.534792503591E+00

@ FREQUENCY DEPENDENT SECOND ORDER PROPERTIES WITH FREQUENCY :

@    a.u.:  3.2285487D-01
@    cm-1:  7.0858454D+04
@    eV  :  8.7853280D+00
@  kJ/mol:  8.4765534D+02
@    nm  :  1.4112642D+02

@ -<< ZDIPLEN  ; ZDIPLEN  >> =  2.607707572013E+00

@ FREQUENCY DEPENDENT SECOND ORDER PROPERTIES WITH FREQUENCY :

@    a.u.:  3.6897700D-01
@    cm-1:  8.0981090D+04
@    eV  :  1.0040375D+01
@  kJ/mol:  9.6874896D+02
@    nm  :  1.2348562D+02

@ -<< ZDIPLEN  ; ZDIPLEN  >> =  2.701346154983E+00


 Time used in linear response calculation is      0.87 CPU seconds for symmetry 5

  Total CPU  time used in RESPONSE:   2.70 seconds
  Total wall time used in RESPONSE:   2.72 seconds


                   .-------------------------------------------.
                   | End of Dynamic Property Section (RESPONS) |
                   `-------------------------------------------'



 PLTORB knows S,P,D,F,G shells. The basis set contains orbital(s) with higher angular momentum,
 and the writing of MOLPLT file is thus abandoned.

  Total CPU  time used in DALTON:   3.25 seconds
  Total wall time used in DALTON:   3.28 seconds

 
     Date and time (Linux)  : Wed Jan 11 14:14:31 2023
     Host name              : cn027                                   
