

     ************************************************************************
     *************** Dalton - An Electronic Structure Program ***************
     ************************************************************************

    This is output from DALTON release Dalton2020.0 (2020)
         ( Web site: http://daltonprogram.org )

   ----------------------------------------------------------------------------

    NOTE:
     
    Dalton is an experimental code for the evaluation of molecular
    properties using (MC)SCF, DFT, CI, and CC wave functions.
    The authors accept no responsibility for the performance of
    the code or for the correctness of the results.
     
    The code (in whole or part) is provided under a licence and
    is not to be reproduced for further distribution without
    the written permission of the authors or their representatives.
     
    See the home page "http://daltonprogram.org" for further information.
     
    If results obtained with this code are published,
    the appropriate citations would be both of:
     
       K. Aidas, C. Angeli, K. L. Bak, V. Bakken, R. Bast,
       L. Boman, O. Christiansen, R. Cimiraglia, S. Coriani,
       P. Dahle, E. K. Dalskov, U. Ekstroem,
       T. Enevoldsen, J. J. Eriksen, P. Ettenhuber, B. Fernandez,
       L. Ferrighi, H. Fliegl, L. Frediani, K. Hald, A. Halkier,
       C. Haettig, H. Heiberg, T. Helgaker, A. C. Hennum,
       H. Hettema, E. Hjertenaes, S. Hoest, I.-M. Hoeyvik,
       M. F. Iozzi, B. Jansik, H. J. Aa. Jensen, D. Jonsson,
       P. Joergensen, J. Kauczor, S. Kirpekar,
       T. Kjaergaard, W. Klopper, S. Knecht, R. Kobayashi, H. Koch,
       J. Kongsted, A. Krapp, K. Kristensen, A. Ligabue,
       O. B. Lutnaes, J. I. Melo, K. V. Mikkelsen, R. H. Myhre,
       C. Neiss, C. B. Nielsen, P. Norman, J. Olsen,
       J. M. H. Olsen, A. Osted, M. J. Packer, F. Pawlowski,
       T. B. Pedersen, P. F. Provasi, S. Reine, Z. Rinkevicius,
       T. A. Ruden, K. Ruud, V. Rybkin, P. Salek, C. C. M. Samson,
       A. Sanchez de Meras, T. Saue, S. P. A. Sauer,
       B. Schimmelpfennig, K. Sneskov, A. H. Steindal,
       K. O. Sylvester-Hvid, P. R. Taylor, A. M. Teale,
       E. I. Tellgren, D. P. Tew, A. J. Thorvaldsen, L. Thoegersen,
       O. Vahtras, M. A. Watson, D. J. D. Wilson, M. Ziolkowski
       and H. Agren,
       "The Dalton quantum chemistry program system",
       WIREs Comput. Mol. Sci. 2014, 4:269–284 (doi: 10.1002/wcms.1172)
     
    and
     
       Dalton, a molecular electronic structure program,
       Release Dalton2020.0 (2020), see http://daltonprogram.org
   ----------------------------------------------------------------------------

    Authors in alphabetical order (Major contribution(s) in parenthesis):

  Kestutis Aidas,           Vilnius University,           Lithuania   (QM/MM)
  Celestino Angeli,         University of Ferrara,        Italy       (NEVPT2)
  Keld L. Bak,              UNI-C,                        Denmark     (AOSOPPA, non-adiabatic coupling, magnetic properties)
  Vebjoern Bakken,          University of Oslo,           Norway      (DALTON; geometry optimizer, symmetry detection)
  Radovan Bast,             UiT The Arctic U. of Norway,  Norway      (DALTON installation and execution frameworks)
  Pablo Baudin,             University of Valencia,       Spain       (Cholesky excitation energies)
  Linus Boman,              NTNU,                         Norway      (Cholesky decomposition and subsystems)
  Bruno N. Cabral Tenorio,  Technical Univ. of Denmark,   Denmark     (Lanczos-based CC methods)
  Ove Christiansen,         Aarhus University,            Denmark     (CC module)
  Renzo Cimiraglia,         University of Ferrara,        Italy       (NEVPT2)
  Sonia Coriani,            Technical Univ. of Denmark,   Denmark     (CC and RESPONS modules)
  Janusz Cukras,            University of Warsaw,         Poland      (MChD in RESPONS)
  Paal Dahle,               University of Oslo,           Norway      (Parallelization)
  Erik K. Dalskov,          UNI-C,                        Denmark     (SOPPA)
  Thomas Enevoldsen,        Univ. of Southern Denmark,    Denmark     (SOPPA)
  Janus J. Eriksen,         Aarhus University,            Denmark     (Polarizable embedding, TDA)
  Rasmus Faber,             Technical Univ. of Denmark,   Denmark     (Vib.avg. NMR w. SOPPA, parallel AO-SOPPA, CVS-CC and EOMCC)
  Tobias Fahleson,          KTH Stockholm,                Sweden      (Damped cubic response)
  Berta Fernandez,          U. of Santiago de Compostela, Spain       (Doublet spin, ESR in RESPONS)
  Lara Ferrighi,            Aarhus University,            Denmark     (PCM Cubic response)
  Heike Fliegl,             University of Oslo,           Norway      (CCSD(R12))
  Luca Frediani,            UiT The Arctic U. of Norway,  Norway      (PCM)
  Emmanuel Fromager,        Univ. Strasbourg,             France      (MC-srDFT)
  Bin Gao,                  UiT The Arctic U. of Norway,  Norway      (Gen1Int library)
  Andre S. P. Gomes,        CNRS/Universite de Lille,     France      (Frozen density embedding)
  Christof Haettig,         Ruhr-University Bochum,       Germany     (CC module)
  Kasper Hald,              Aarhus University,            Denmark     (CC module)
  Asger Halkier,            Aarhus University,            Denmark     (CC module)
  Frederik Beyer Hansen,    University of Copenhagen,     Denmark     (Parallel AO-SOPPA)
  Erik D. Hedegaard,        Univ. of Southern Denmark,    Denmark     (Polarizable embedding, QM/MM, and MC-srDFT)
  Hanne Heiberg,            University of Oslo,           Norway      (Geometry analysis, selected one-electron integrals)
  Trygve Helgaker,          University of Oslo,           Norway      (DALTON; ABACUS, ERI, DFT modules, London, and much more)
  Alf Christian Hennum,     University of Oslo,           Norway      (Parity violation)
  Hinne Hettema,            University of Auckland,       New Zealand (Quadratic response in RESPONS; SIRIUS supersymmetry)
  Eirik Hjertenaes,         NTNU,                         Norway      (Cholesky decomposition)
  Pi A. B. Haase,           University of Copenhagen,     Denmark     (Triplet AO-SOPPA)
  Maria Francesca Iozzi,    University of Oslo,           Norway      (RPA)
  Christoph Jacob           TU Braunschweig               Germany     (Frozen density embedding)
  Brano Jansik              Technical Univ. of Ostrava    Czech Rep.  (DFT cubic response)
  Hans Joergen Aa. Jensen,  Univ. of Southern Denmark,    Denmark     (DALTON; SIRIUS, RESPONS, ABACUS, MC-srDFT, and much more)
  Dan Jonsson,              UiT The Arctic U. of Norway,  Norway      (Cubic response in RESPONS module)
  Poul Joergensen,          Aarhus University,            Denmark     (RESPONS, ABACUS, and CC modules)
  Maciej Kaminski,          University of Warsaw,         Poland      (CPPh in RESPONS)
  Joanna Kauczor,           Linkoeping University,        Sweden      (Complex polarization propagator (CPP) module)
  Sheela Kirpekar,          Univ. of Southern Denmark,    Denmark     (Mass-velocity & Darwin integrals)
  Erik Kjellgren,           Univ. of Southern Denmark,    Denmark     (MC-srDFT)
  Wim Klopper,              KIT Karlsruhe,                Germany     (R12 code in CC, SIRIUS, and ABACUS modules)
  Stefan Knecht,            ETH Zurich,                   Switzerland (Parallel CI and MCSCF, MC-srDFT)
  Rika Kobayashi,           Australian National Univ.,    Australia   (DIIS in CC, London in MCSCF)
  Henrik Koch,              NTNU,                         Norway      (CC module, Cholesky decomposition)
  Jacob Kongsted,           Univ. of Southern Denmark,    Denmark     (Polarizable embedding, polarizable density embedding, QM/MM)
  Andrea Ligabue,           University of Modena,         Italy       (CTOCD, AOSOPPA)
  Nanna H. List             Univ. of Southern Denmark,    Denmark     (Polarizable embedding)
  Ola B. Lutnaes,           University of Oslo,           Norway      (DFT Hessian)
  Juan I. Melo,             University of Buenos Aires,   Argentina   (LRESC, Relativistic Effects on NMR Shieldings)
  Kurt V. Mikkelsen,        University of Copenhagen,     Denmark     (MC-SCRF and QM/MM)
  Rolf H. Myhre,            NTNU,                         Norway      (Subsystems and CC3)
  Christian Neiss,          Univ. Erlangen-Nuernberg,     Germany     (CCSD(R12))
  Christian B. Nielsen,     University of Copenhagen,     Denmark     (QM/MM)
  Patrick Norman,           KTH Stockholm,                Sweden      (Cubic response and complex frequency response in RESPONS)
  Jeppe Olsen,              Aarhus University,            Denmark     (SIRIUS CI/density modules)
  Jogvan Magnus H. Olsen,   Aarhus University,            Denmark     (Polarizable embedding and polarizable density embedding)
  Anders Osted,             Copenhagen University,        Denmark     (QM/MM)
  Martin J. Packer,         University of Sheffield,      UK          (SOPPA)
  Filip Pawlowski,          Kazimierz Wielki University,  Poland      (CC3)
  Morten N. Pedersen,       Univ. of Southern Denmark,    Denmark     (Polarizable embedding)
  Thomas B. Pedersen,       University of Oslo,           Norway      (Cholesky decomposition)
  Patricio F. Provasi,      University of Northeastern,   Argentina   (Analysis of coupling constants in localized orbitals)
  Peter Reinholdt,          Univ. of Southern Denmark,    Denmark     (Polarizable embedding and polarizable density embedding)
  Zilvinas Rinkevicius,     KTH Stockholm,                Sweden      (open-shell DFT, ESR)
  Elias Rudberg,            KTH Stockholm,                Sweden      (DFT grid and basis info)
  Torgeir A. Ruden,         University of Oslo,           Norway      (Numerical derivatives in ABACUS)
  Kenneth Ruud,             UiT The Arctic U. of Norway,  Norway      (DALTON; ABACUS magnetic properties and much more)
  Pawel Salek,              KTH Stockholm,                Sweden      (DALTON; DFT code)
  Claire C. M. Samson       University of Karlsruhe       Germany     (Boys localization, r12 integrals in ERI)
  Alfredo Sanchez de Meras, University of Valencia,       Spain       (CC module, Cholesky decomposition)
  Trond Saue,               Paul Sabatier University,     France      (direct Fock matrix construction)
  Stephan P. A. Sauer,      University of Copenhagen,     Denmark     (SOPPA(CCSD), SOPPA prop., AOSOPPA, vibrational g-factors)
  Bernd Schimmelpfennig,    Forschungszentrum Karlsruhe,  Germany     (AMFI module)
  Anna K. Schnack-Petersen, University of Copenhagen,     Denmark     (RPA(D) and HRPA(D) properties in AOSOPPA)
  Kristian Sneskov,         Aarhus University,            Denmark     (Polarizable embedding, QM/MM)
  Arnfinn H. Steindal,      UiT The Arctic U. of Norway,  Norway      (parallel QM/MM, polarizable embedding)
  Casper Steinmann,         Aalborg University,           Denmark     (QFIT, polarizable embedding)
  K. O. Sylvester-Hvid,     University of Copenhagen,     Denmark     (MC-SCRF)
  Peter R. Taylor,          VLSCI/Univ. of Melbourne,     Australia   (Symmetry handling ABACUS, integral transformation)
  Andrew M. Teale,          University of Nottingham,     England     (DFT-AC, DFT-D)
  David P. Tew,             University of Bristol,        England     (CCSD(R12))
  Julien Toulouse,          Sorbonne Univ.,               France      (MC-srDFT)
  Olav Vahtras,             KTH Stockholm,                Sweden      (Triplet response, spin-orbit, ESR, TDDFT, open-shell DFT)
  Lucas Visscher,           Vrije Universiteit Amsterdam, Netherlands (Frozen density embedding)
  David J. Wilson,          La Trobe University,          Australia   (DFT Hessian and DFT magnetizabilities)
  Hans Agren,               KTH Stockholm,                Sweden      (SIRIUS module, RESPONS, MC-SCRF solvation)
 --------------------------------------------------------------------------------

     Date and time (Linux)  : Wed Jan 11 15:39:03 2023
     Host name              : cn035                                   

 * Work memory size             :    64000000 =  488.28 megabytes.

 * Directories for basis set searches:
   1) /gpfs/projects/rjh/adrian/fd_compare/dalton/hf/Ne/dipole
   2) /gpfs/projects/rjh/adrian/dalton/build/basis


Compilation information
-----------------------

 Who compiled             | ahurtado
 Host                     | sn-mem
 System                   | Linux-3.10.0-1160.24.1.el7.x86_64
 CMake generator          | Unix Makefiles
 Processor                | x86_64
 64-bit integers          | OFF
 MPI                      | ON
 Fortran compiler         | /gpfs/software/intel/oneAPI/2021_4/mpi/2021.4.0/bi
                          | n/mpif90
 Fortran compiler version | GNU Fortran (GCC) 11.2.0
 C compiler               | /gpfs/software/intel/oneAPI/2021_4/mpi/2021.4.0/bi
                          | n/mpicc
 C compiler version       | gcc (GCC) 11.2.0
 C++ compiler             | /gpfs/software/intel/oneAPI/2021_4/mpi/2021.4.0/bi
                          | n/mpicxx
 C++ compiler version     | unknown
 BLAS                     | /gpfs/software/intel/oneAPI/2021_4/mkl/2021.4.0/li
                          | b/intel64/libmkl_gf_lp64.so;/gpfs/software/intel/o
                          | neAPI/2021_4/mkl/2021.4.0/lib/intel64/libmkl_seque
                          | ntial.so;/gpfs/software/intel/oneAPI/2021_4/mkl/20
                          | 21.4.0/lib/intel64/libmkl_core.so;/usr/lib64/libpt
                          | hread.so;/usr/lib64/libm.so
 LAPACK                   | /gpfs/software/intel/oneAPI/2021_4/mkl/2021.4.0/li
                          | b/intel64/libmkl_lapack95_lp64.a;/gpfs/software/in
                          | tel/oneAPI/2021_4/mkl/2021.4.0/lib/intel64/libmkl_
                          | gf_lp64.so
 Static linking           | OFF
 Last Git revision        | 66052b3af5ea7225e31178bf9a8b031913c72190
 Git branch               | (HEAD detached at Dalton2020.0)
 Configuration time       | 2023-01-11 13:33:37.731835

 * MPI parallel run using 20 processes.


   Content of the .dal input file
 ----------------------------------

**DALTON INPUT
.RUN RESPONSE
.DIRECT
**WAVE FUNCTIONS
.HF
**RESPONSE
*LINEAR
.DIPLEN
.FREQUENCIES
9
0.0 0.046122125 0.09224425 0.13836637499999999 0.1844885 0.230610625 0.27673274999999997 0.322854875
**END OF DALTON INPUT


   Content of the .mol file
 ----------------------------

BASIS
d-aug-cc-pCVQZ
blah
blah
Atomtype=1 Angstrom
Charge=10 Atoms=1
Ne_a 0.000000000000 0.000000000000 0.000000000000


       *******************************************************************
       *********** Output from DALTON general input processing ***********
       *******************************************************************

 --------------------------------------------------------------------------------
   Overall default print level:    0
   Print level for DALTON.STAT:    1

    Parallel calculation using MPI
    AO-direct calculation (in sections where implemented)
    HERMIT 1- and 2-electron integral sections will be executed
    "Old" integral transformation used (limited to max 255 basis functions)
    Wave function sections will be executed (SIRIUS module)
    Dynamic molecular response properties section will be executed (RESPONSE module)
 --------------------------------------------------------------------------------


   ****************************************************************************
   *************** Output of molecule and basis set information ***************
   ****************************************************************************


    The two title cards from your ".mol" input:
    ------------------------------------------------------------------------
 1: blah                                                                    
 2: blah                                                                    
    ------------------------------------------------------------------------

  Coordinates are entered in Angstrom and converted to atomic units.
          - Conversion factor : 1 bohr = 0.52917721 A

  Atomic type no.    1
  --------------------
  Nuclear charge:  10.00000
  Number of symmetry independent centers:    1
  Number of basis sets to read;    2
  Basis set file used for this atomic type with Z =  10 :
     "/gpfs/projects/rjh/adrian/dalton/build/basis/aug-cc-pCVQZ"


                      SYMADD: Requested addition of symmetry
                      --------------------------------------

 Symmetry test threshold:  5.00E-06

@   The molecule is centered at center of mass and rotated
@   so principal axes of inertia are along coordinate axes.

 Symmetry class found: D(oo,h)        

 Symmetry Independent Centres             
 ----------------------------
Ne_a  10 :      0.00000000     0.00000000     0.00000000  Isotope  1

 The following symmetry elements were found:   X  Y  Z  


                         SYMGRP: Point group information
                         -------------------------------

@    Full point group is: D(oo,h)        
@    Represented as:      D2h

@  * The irrep name for each symmetry:    1: Ag     2: B3u    3: B2u    4: B1g    5: B1u    6: B2g    7: B3g    8: Au 


   * The point group was generated by:

      Reflection in the yz-plane
      Reflection in the xz-plane
      Reflection in the xy-plane

   * Group multiplication table

        |  E   C2z  C2y  C2x   i   Oxy  Oxz  Oyz
   -----+----------------------------------------
     E  |  E   C2z  C2y  C2x   i   Oxy  Oxz  Oyz
    C2z | C2z   E   C2x  C2y  Oxy   i   Oyz  Oxz
    C2y | C2y  C2x   E   C2z  Oxz  Oyz   i   Oxy
    C2x | C2x  C2y  C2z   E   Oyz  Oxz  Oxy   i 
     i  |  i   Oxy  Oxz  Oyz   E   C2z  C2y  C2x
    Oxy | Oxy   i   Oyz  Oxz  C2z   E   C2x  C2y
    Oxz | Oxz  Oyz   i   Oxy  C2y  C2x   E   C2z
    Oyz | Oyz  Oxz  Oxy   i   C2x  C2y  C2z   E 

   * Character table

        |  E   C2z  C2y  C2x   i   Oxy  Oxz  Oyz
   -----+----------------------------------------
    Ag  |   1    1    1    1    1    1    1    1
    B3u |   1   -1   -1    1   -1    1    1   -1
    B2u |   1   -1    1   -1   -1    1   -1    1
    B1g |   1    1   -1   -1    1    1   -1   -1
    B1u |   1    1   -1   -1   -1   -1    1    1
    B2g |   1   -1    1   -1    1   -1    1   -1
    B3g |   1   -1   -1    1    1   -1   -1    1
    Au  |   1    1    1    1   -1   -1   -1   -1

   * Direct product table

        | Ag   B3u  B2u  B1g  B1u  B2g  B3g  Au 
   -----+----------------------------------------
    Ag  | Ag   B3u  B2u  B1g  B1u  B2g  B3g  Au 
    B3u | B3u  Ag   B1g  B2u  B2g  B1u  Au   B3g
    B2u | B2u  B1g  Ag   B3u  B3g  Au   B1u  B2g
    B1g | B1g  B2u  B3u  Ag   Au   B3g  B2g  B1u
    B1u | B1u  B2g  B3g  Au   Ag   B3u  B2u  B1g
    B2g | B2g  B1u  Au   B3g  B3u  Ag   B1g  B2u
    B3g | B3g  Au   B1u  B2g  B2u  B1g  Ag   B3u
    Au  | Au   B3g  B2g  B1u  B1g  B2u  B3u  Ag 


                                 Isotopic Masses
                                 ---------------

                           Ne_a       19.992439

                       Total mass:    19.992439 amu
                       Natural abundance:  90.480 %

 Center-of-mass coordinates (a.u.):    0.000000    0.000000    0.000000
 Center-of-mass coordinates (Angs):    0.000000    0.000000    0.000000


  Atoms and basis sets
  --------------------

  Number of atom types :    1
  Total number of atoms:    1

  Basis set used is "d-aug-cc-pCVQZ" from the basis set library.

  label    atoms   charge   prim   cont     basis
  ----------------------------------------------------------------------
  Ne          1   10.0000   147   134      [17s11p7d5f3g|10s9p7d5f3g]                         
  ----------------------------------------------------------------------
  total:      1   10.0000   147   134
  ----------------------------------------------------------------------
  Spherical harmonic basis used.

  Threshold for neglecting AO integrals:  1.00D-12


  Cartesian Coordinates (a.u.)
  ----------------------------

  Total number of coordinates:    3
  Ne_a    :     1  x   0.0000000000    2  y   0.0000000000    3  z   0.0000000000


  Symmetry Coordinates
  --------------------

  Number of coordinates in each symmetry:     0    1    1    0    1    0    0    0

  Symmetry  B3u ( 2)

    1   Ne_a  x    1

  Symmetry  B2u ( 3)

    2   Ne_a  y    2

  Symmetry  B1u ( 5)

    3   Ne_a  z    3


@ This is an atomic calculation.


  Symmetry Orbitals
  -----------------

  Number of orbitals in each symmetry:          33   19   19   13   19   13   13    5


  Symmetry  Ag ( 1)

    1     Ne_a     1s         1
    2     Ne_a     1s         2
    3     Ne_a     1s         3
    4     Ne_a     1s         4
    5     Ne_a     1s         5
    6     Ne_a     1s         6
    7     Ne_a     1s         7
    8     Ne_a     1s         8
    9     Ne_a     1s         9
   10     Ne_a     1s        10
   11     Ne_a     3d0       40
   12     Ne_a     3d2+      42
   13     Ne_a     3d0       45
   14     Ne_a     3d2+      47
   15     Ne_a     3d0       50
   16     Ne_a     3d2+      52
   17     Ne_a     3d0       55
   18     Ne_a     3d2+      57
   19     Ne_a     3d0       60
   20     Ne_a     3d2+      62
   21     Ne_a     3d0       65
   22     Ne_a     3d2+      67
   23     Ne_a     3d0       70
   24     Ne_a     3d2+      72
   25     Ne_a     5g0      112
   26     Ne_a     5g2+     114
   27     Ne_a     5g4+     116
   28     Ne_a     5g0      121
   29     Ne_a     5g2+     123
   30     Ne_a     5g4+     125
   31     Ne_a     5g0      130
   32     Ne_a     5g2+     132
   33     Ne_a     5g4+     134


  Symmetry  B3u( 2)

   34     Ne_a     2px       11
   35     Ne_a     2px       14
   36     Ne_a     2px       17
   37     Ne_a     2px       20
   38     Ne_a     2px       23
   39     Ne_a     2px       26
   40     Ne_a     2px       29
   41     Ne_a     2px       32
   42     Ne_a     2px       35
   43     Ne_a     4f1+      77
   44     Ne_a     4f3+      79
   45     Ne_a     4f1+      84
   46     Ne_a     4f3+      86
   47     Ne_a     4f1+      91
   48     Ne_a     4f3+      93
   49     Ne_a     4f1+      98
   50     Ne_a     4f3+     100
   51     Ne_a     4f1+     105
   52     Ne_a     4f3+     107


  Symmetry  B2u( 3)

   53     Ne_a     2py       12
   54     Ne_a     2py       15
   55     Ne_a     2py       18
   56     Ne_a     2py       21
   57     Ne_a     2py       24
   58     Ne_a     2py       27
   59     Ne_a     2py       30
   60     Ne_a     2py       33
   61     Ne_a     2py       36
   62     Ne_a     4f3-      73
   63     Ne_a     4f1-      75
   64     Ne_a     4f3-      80
   65     Ne_a     4f1-      82
   66     Ne_a     4f3-      87
   67     Ne_a     4f1-      89
   68     Ne_a     4f3-      94
   69     Ne_a     4f1-      96
   70     Ne_a     4f3-     101
   71     Ne_a     4f1-     103


  Symmetry  B1g( 4)

   72     Ne_a     3d2-      38
   73     Ne_a     3d2-      43
   74     Ne_a     3d2-      48
   75     Ne_a     3d2-      53
   76     Ne_a     3d2-      58
   77     Ne_a     3d2-      63
   78     Ne_a     3d2-      68
   79     Ne_a     5g4-     108
   80     Ne_a     5g2-     110
   81     Ne_a     5g4-     117
   82     Ne_a     5g2-     119
   83     Ne_a     5g4-     126
   84     Ne_a     5g2-     128


  Symmetry  B1u( 5)

   85     Ne_a     2pz       13
   86     Ne_a     2pz       16
   87     Ne_a     2pz       19
   88     Ne_a     2pz       22
   89     Ne_a     2pz       25
   90     Ne_a     2pz       28
   91     Ne_a     2pz       31
   92     Ne_a     2pz       34
   93     Ne_a     2pz       37
   94     Ne_a     4f0       76
   95     Ne_a     4f2+      78
   96     Ne_a     4f0       83
   97     Ne_a     4f2+      85
   98     Ne_a     4f0       90
   99     Ne_a     4f2+      92
  100     Ne_a     4f0       97
  101     Ne_a     4f2+      99
  102     Ne_a     4f0      104
  103     Ne_a     4f2+     106


  Symmetry  B2g( 6)

  104     Ne_a     3d1+      41
  105     Ne_a     3d1+      46
  106     Ne_a     3d1+      51
  107     Ne_a     3d1+      56
  108     Ne_a     3d1+      61
  109     Ne_a     3d1+      66
  110     Ne_a     3d1+      71
  111     Ne_a     5g1+     113
  112     Ne_a     5g3+     115
  113     Ne_a     5g1+     122
  114     Ne_a     5g3+     124
  115     Ne_a     5g1+     131
  116     Ne_a     5g3+     133


  Symmetry  B3g( 7)

  117     Ne_a     3d1-      39
  118     Ne_a     3d1-      44
  119     Ne_a     3d1-      49
  120     Ne_a     3d1-      54
  121     Ne_a     3d1-      59
  122     Ne_a     3d1-      64
  123     Ne_a     3d1-      69
  124     Ne_a     5g3-     109
  125     Ne_a     5g1-     111
  126     Ne_a     5g3-     118
  127     Ne_a     5g1-     120
  128     Ne_a     5g3-     127
  129     Ne_a     5g1-     129


  Symmetry  Au ( 8)

  130     Ne_a     4f2-      74
  131     Ne_a     4f2-      81
  132     Ne_a     4f2-      88
  133     Ne_a     4f2-      95
  134     Ne_a     4f2-     102

  Symmetries of electric field:  B3u(2)  B2u(3)  B1u(5)

  Symmetries of magnetic field:  B3g(7)  B2g(6)  B1g(4)


                     .---------------------------------------.
                     | Starting in Integral Section (HERMIT) |
                     `---------------------------------------'



 ***************************************************************************************
 ****************** Output from **INTEGRALS input processing (HERMIT) ******************
 ***************************************************************************************


 - Using defaults, no **INTEGRALS input found

 Default print level:        1

 Calculation of one-electron Hamiltonian integrals.

 Center of mass  (bohr):      0.000000000000      0.000000000000      0.000000000000
 Operator center (bohr):      0.000000000000      0.000000000000      0.000000000000
 Gauge origin    (bohr):      0.000000000000      0.000000000000      0.000000000000
 Dipole origin   (bohr):      0.000000000000      0.000000000000      0.000000000000


     ************************************************************************
     ************************** Output from HERINT **************************
     ************************************************************************



                      Nuclear contribution to dipole moments
                      --------------------------------------

                    All dipole components are zero by symmetry


  Time used in GABGEN     is       0.27 seconds
  Total CPU  time used in HERMIT:   0.36 seconds
  Total wall time used in HERMIT:   0.37 seconds


                        .----------------------------------.
                        | End of Integral Section (HERMIT) |
                        `----------------------------------'



                   .--------------------------------------------.
                   | Starting in Wave Function Section (SIRIUS) |
                   `--------------------------------------------'


 *** Output from Huckel module :

     Using EWMO model:          T
     Using EHT  model:          F
     Number of Huckel orbitals each symmetry:    2    1    1    0    1    0    0    0

 EWMO - Energy Weighted Maximum Overlap - is a Huckel type method,
        which normally is better than Extended Huckel Theory.
 Reference: Linderberg and Ohrn, Propagators in Quantum Chemistry (Wiley, 1973)

 Huckel EWMO eigenvalues for symmetry :  1
          -32.772400      -1.930400

 Huckel EWMO eigenvalues for symmetry :  2
           -0.850400

 Huckel EWMO eigenvalues for symmetry :  3
           -0.850400

 Huckel EWMO eigenvalues for symmetry :  5
           -0.850400

 **********************************************************************
 *SIRIUS* a direct, restricted step, second order MCSCF program       *
 **********************************************************************

 
     Date and time (Linux)  : Wed Jan 11 15:39:03 2023
     Host name              : cn035                                   

 Title lines from ".mol" input file:
     blah                                                                    
     blah                                                                    

 Print level on unit LUPRI =   2 is   0
 Print level on unit LUW4  =   2 is   5

@    Restricted, closed shell Hartree-Fock calculation.

@    Time-dependent Hartree-Fock calculation (random phase approximation).
 Fock matrices are calculated directly and in parallel without use of integrals on disk.

 Initial molecular orbitals are obtained according to
 ".MOSTART EWMO  " input option

     Wave function specification
     ============================
@    Wave function type        --- HF ---
@    Number of closed shell electrons          10
@    Number of electrons in active shells       0
@    Total charge of the molecule               0

@    Spin multiplicity and 2 M_S                1         0
@    Total number of symmetries                 8 (point group: D2h)
@    Reference state symmetry                   1 (irrep name : Ag )

     Orbital specifications
     ======================
@    Abelian symmetry species          All |    1    2    3    4    5    6    7    8
@                                          |  Ag   B3u  B2u  B1g  B1u  B2g  B3g  Au 
                                       --- |  ---  ---  ---  ---  ---  ---  ---  ---
@    Total number of orbitals          134 |   33   19   19   13   19   13   13    5
@    Number of basis functions         134 |   33   19   19   13   19   13   13    5

      ** Automatic occupation of RHF orbitals **

      -- Initial occupation of symmetries is determined from extended Huckel guess.           
      -- Initial occupation of symmetries is :
@    Occupied SCF orbitals               5 |    2    1    1    0    1    0    0    0

     Maximum number of Fock   iterations      0
     Maximum number of DIIS   iterations     60
     Maximum number of QC-SCF iterations     60
     Threshold for SCF convergence     1.00D-05


 ***********************************************
 ***** DIIS acceleration of SCF iterations *****
 ***********************************************

 C1-DIIS algorithm; max error vectors =    8

 Automatic occupation of symmetries with  10 electrons.

 Iter     Total energy    Error norm  Delta(E)    SCF occupation
 -----------------------------------------------------------------------------
   1  Screening settings (-IFTHRS, JTDIIS, DIFDEN, times)   -7    1    T  8.16D-02  8.20D-02
@  1  -128.536488945       4.50D+00  -1.29D+02     2   1   1   0   1   0   0   0
      Virial theorem: -V/T =      2.000027
@    MULPOP   Ne_a    0.00; 
   1  Level shift: doubly occupied orbital energies shifted by -2.00D-01
 -----------------------------------------------------------------------------
   2  Screening settings (-IFTHRS, JTDIIS, DIFDEN, times)   -7    2    T  6.05D-02  6.10D-02
@  2  -128.543770450       5.94D-02  -7.28D-03     2   1   1   0   1   0   0   0
      Virial theorem: -V/T =      1.999803
@    MULPOP   Ne_a    0.00; 
   2  Level shift: doubly occupied orbital energies shifted by -5.00D-02
 -----------------------------------------------------------------------------
   3  Screening settings (-IFTHRS, JTDIIS, DIFDEN, times)  -11    3    F  6.33D-02  6.30D-02
@  3  -128.543861729       7.95D-03  -9.13D-05     2   1   1   0   1   0   0   0
      Virial theorem: -V/T =      2.000136
@    MULPOP   Ne_a    0.00; 
   3  Level shift: doubly occupied orbital energies shifted by -1.25D-02
 -----------------------------------------------------------------------------
   4  Screening settings (-IFTHRS, JTDIIS, DIFDEN, times)  -11    4    T  6.10D-02  6.10D-02
@  4  -128.543864233       4.10D-03  -2.50D-06     2   1   1   0   1   0   0   0
      Virial theorem: -V/T =      1.999986
@    MULPOP   Ne_a    0.00; 
   4  Level shift: doubly occupied orbital energies shifted by -1.25D-02
 -----------------------------------------------------------------------------
   5  Screening settings (-IFTHRS, JTDIIS, DIFDEN, times)  -11    5    T  5.97D-02  6.00D-02
@  5  -128.543864575       1.61D-04  -3.41D-07     2   1   1   0   1   0   0   0
      Virial theorem: -V/T =      2.000043
@    MULPOP   Ne_a    0.00; 
 -----------------------------------------------------------------------------
   6  Screening settings (-IFTHRS, JTDIIS, DIFDEN, times)  -11    6    T  6.02D-02  6.00D-02
@  6  -128.543864577       2.70D-05  -2.40D-09     2   1   1   0   1   0   0   0
      Virial theorem: -V/T =      2.000042
@    MULPOP   Ne_a   -0.00; 
 -----------------------------------------------------------------------------
   7  Screening settings (-IFTHRS, JTDIIS, DIFDEN, times)  -11    7    T  5.25D-02  5.20D-02
@  7  -128.543864577       1.83D-06  -3.76D-11     2   1   1   0   1   0   0   0

@ *** DIIS converged in   7 iterations !
@     Converged SCF energy, gradient:   -128.543864576961    1.83D-06
    - total time used in SIRFCK :              0.00 seconds


 *** SCF orbital energy analysis ***

 Only the 20 lowest virtual orbital energies printed in each symmetry.

 Number of electrons :   10
 Orbital occupations :    2    1    1    0    1    0    0    0

 Sym       Hartree-Fock orbital energies

1 Ag    -32.77410622    -1.93115145     0.05477310     0.31599169     0.31599169
          0.33610657     1.03814235     1.03814235     1.51566106     2.56451485
          2.56451485     2.56451485     2.74179566     2.74179566     6.08523326
          7.14638446     7.14638446     7.14638446     7.34379523     7.34379523
         17.91235491    17.91235491

2 B3u    -0.85061801     0.05894484     0.27587229     1.10742972     1.23705129
          1.23705129     3.42372252     3.42372252     4.12393516     8.04783621
          8.04783621    14.34324287    21.19476866    21.19476866    50.81311631
        112.98671107   112.98671107   177.91568843   604.34900885

3 B2u    -0.85061801     0.05894484     0.27587229     1.10742972     1.23705129
          1.23705129     3.42372252     3.42372252     4.12393516     8.04783621
          8.04783621    14.34324287    21.19476866    21.19476866    50.81311631
        112.98671107   112.98671107   177.91568843   604.34900885

4 B1g     0.31599169     1.03814235     2.56451485     2.56451485     2.74179566
          7.14638446     7.14638446     7.34379523    17.91235491    17.91235491
         21.30968502    75.72262833   311.45801101

5 B1u    -0.85061801     0.05894484     0.27587229     1.10742972     1.23705129
          1.23705129     3.42372252     3.42372252     4.12393516     8.04783621
          8.04783621    14.34324287    21.19476866    21.19476866    50.81311631
        112.98671107   112.98671107   177.91568843   604.34900885

6 B2g     0.31599169     1.03814235     2.56451485     2.56451485     2.74179566
          7.14638446     7.14638446     7.34379523    17.91235491    17.91235491
         21.30968502    75.72262833   311.45801101

7 B3g     0.31599169     1.03814235     2.56451485     2.56451485     2.74179566
          7.14638446     7.14638446     7.34379523    17.91235491    17.91235491
         21.30968502    75.72262833   311.45801101

8 Au      1.23705129     3.42372252     8.04783621    21.19476866   112.98671107


    E(LUMO) :     0.05477310 au (symmetry 1)
  - E(HOMO) :    -0.85061801 au (symmetry 2)
  ------------------------------------------
    gap     :     0.90539111 au

 --- Writing SIRIFC interface file

 CPU and wall time for SCF :       0.450       0.453


                       .-----------------------------------.
                       | --- Final results from SIRIUS --- |
                       `-----------------------------------'


@    Spin multiplicity:           1
@    Spatial symmetry:            1 ( irrep  Ag  in D2h )
@    Total charge of molecule:    0

@    Final HF energy:            -128.543864576961                 
@    Nuclear repulsion:             0.000000000000
@    Electronic energy:          -128.543864576961

@    Final gradient norm:           0.000001829570

 
     Date and time (Linux)  : Wed Jan 11 15:39:03 2023
     Host name              : cn035                                   

File label for MO orbitals:  11Jan23   FOCKDIIS

 (Only coefficients > 0.0100 are printed.)

 Molecular orbitals for symmetry species 1  (Ag )
 ------------------------------------------------

    Orbital         1        2        3        4        5        6        7
   1 Ne_a:1s     1.0005   0.0001   0.0183  -0.0000   0.0000  -0.1006   0.0000
   2 Ne_a:1s     0.0025   1.0011  -0.0046   0.0000  -0.0000  -0.6802  -0.0000
   4 Ne_a:1s    -0.0020   0.0011  -0.1329  -0.0000   0.0000   0.5740   0.0000
   5 Ne_a:1s     0.0000  -0.0031   0.1247  -0.0000   0.0000  -1.1328   0.0000
   6 Ne_a:1s     0.0003   0.0003   0.0077  -0.0000   0.0000  -0.0380   0.0000
   9 Ne_a:1s    -0.0005   0.0010  -0.6776  -0.0000  -0.0000   2.6574   0.0000
  10 Ne_a:1s     0.0002   0.0017   1.4321   0.0000   0.0000  -1.2730  -0.0000
  17 Ne_a:3d0   -0.0000   0.0000  -0.0000   0.0147   0.0000  -0.0000  -0.0815
  18 Ne_a:3d2+  -0.0000  -0.0000   0.0000  -0.0000   0.0147   0.0000   0.0000
  19 Ne_a:3d0    0.0000   0.0000  -0.0000  -0.0871  -0.0000  -0.0000   0.2104
  20 Ne_a:3d2+   0.0000   0.0000  -0.0000   0.0000  -0.0871  -0.0000  -0.0000
  21 Ne_a:3d0   -0.0000  -0.0000   0.0000   0.2893   0.0000   0.0000  -1.4588
  22 Ne_a:3d2+   0.0000   0.0000   0.0000  -0.0000   0.2893  -0.0000   0.0000
  23 Ne_a:3d0    0.0000   0.0000  -0.0000  -1.1560  -0.0000  -0.0000   0.7434
  24 Ne_a:3d2+  -0.0000  -0.0000   0.0000   0.0000  -1.1560   0.0000  -0.0000

    Orbital         8        9       10       11       12
   1 Ne_a:1s    -0.0000  -0.4202  -0.0000  -0.0000   0.0000
   2 Ne_a:1s     0.0000  -1.2306   0.0000   0.0000  -0.0000
   3 Ne_a:1s     0.0000   0.0306   0.0000   0.0000  -0.0000
   4 Ne_a:1s    -0.0000   3.3159  -0.0000  -0.0000   0.0000
   5 Ne_a:1s    -0.0000  -3.4290  -0.0000  -0.0000   0.0000
   6 Ne_a:1s    -0.0000  -0.1715  -0.0000  -0.0000   0.0000
   9 Ne_a:1s     0.0000   2.1665   0.0000   0.0000  -0.0000
  10 Ne_a:1s    -0.0000  -0.6607  -0.0000  -0.0000   0.0000
  18 Ne_a:3d2+  -0.0815  -0.0000  -0.0000  -0.0000   0.0000
  20 Ne_a:3d2+   0.2104   0.0000   0.0000   0.0000  -0.0000
  22 Ne_a:3d2+  -1.4588   0.0000  -0.0000  -0.0000   0.0000
  24 Ne_a:3d2+   0.7434  -0.0000   0.0000   0.0000  -0.0000
  25 Ne_a:5g0   -0.0000  -0.0000  -0.0000   0.0553   0.0000
  26 Ne_a:5g2+   0.0000   0.0000   0.0553   0.0000  -0.0000
  27 Ne_a:5g4+  -0.0000  -0.0000  -0.0000  -0.0000   0.0553
  28 Ne_a:5g0    0.0000   0.0000   0.0000  -0.2567  -0.0000
  29 Ne_a:5g2+  -0.0000  -0.0000  -0.2567  -0.0000   0.0000
  30 Ne_a:5g4+   0.0000   0.0000   0.0000   0.0000  -0.2567
  31 Ne_a:5g0   -0.0000  -0.0000  -0.0000   1.1275  -0.0000
  32 Ne_a:5g2+   0.0000   0.0000   1.1275   0.0000  -0.0000
  33 Ne_a:5g4+   0.0000   0.0000   0.0000   0.0000   1.1275

 Molecular orbitals for symmetry species 2  (B3u)
 ------------------------------------------------

    Orbital         1        2        3        4        5        6        7
   1 Ne_a:2px    0.9990   0.0613  -0.1760  -0.8113   0.0000   0.0000  -0.0000
   2 Ne_a:2px   -0.0000  -0.0086  -0.0410   0.2015  -0.0000  -0.0000   0.0000
   3 Ne_a:2px    0.0024   0.0151   0.0678  -0.4559  -0.0000  -0.0000   0.0000
   4 Ne_a:2px   -0.0060  -0.0622  -0.4082   2.0619  -0.0000   0.0000   0.0000
   5 Ne_a:2px    0.0003  -0.0008  -0.0035   0.0176  -0.0000  -0.0000   0.0000
   8 Ne_a:2px    0.0084   0.2931   1.6329  -1.1228  -0.0000   0.0000   0.0000
   9 Ne_a:2px    0.0018  -1.1646  -0.7926   0.3664   0.0000  -0.0000  -0.0000
  12 Ne_a:4f1+   0.0000   0.0000  -0.0000  -0.0000  -0.0164   0.0000   0.0524
  13 Ne_a:4f3+  -0.0000  -0.0000   0.0000   0.0000  -0.0000  -0.0164   0.0000
  14 Ne_a:4f1+  -0.0000  -0.0000   0.0000   0.0000   0.1282  -0.0000  -0.3367
  15 Ne_a:4f3+   0.0000   0.0000  -0.0000  -0.0000   0.0000   0.1282  -0.0000
  16 Ne_a:4f1+   0.0000   0.0000  -0.0000  -0.0000  -0.4466   0.0000   1.6819
  17 Ne_a:4f3+  -0.0000  -0.0000   0.0000   0.0000  -0.0000  -0.4466   0.0000
  18 Ne_a:4f1+  -0.0000  -0.0000   0.0000   0.0000   1.2530  -0.0000  -0.8645
  19 Ne_a:4f3+   0.0000   0.0000  -0.0000  -0.0000   0.0000   1.2530  -0.0000

    Orbital         8        9       10       11
   1 Ne_a:2px    0.0000   0.4878   0.0000  -0.0000
   2 Ne_a:2px   -0.0000   1.0921  -0.0000   0.0000
   3 Ne_a:2px   -0.0000  -2.2241  -0.0000   0.0000
   4 Ne_a:2px   -0.0000   1.0757  -0.0000   0.0000
   5 Ne_a:2px   -0.0000   0.0752  -0.0000   0.0000
   8 Ne_a:2px   -0.0000  -0.5068  -0.0000   0.0000
   9 Ne_a:2px    0.0000   0.1601   0.0000  -0.0000
  12 Ne_a:4f1+   0.0000   0.0000  -0.0949  -0.0000
  13 Ne_a:4f3+   0.0524  -0.0000  -0.0000  -0.0949
  14 Ne_a:4f1+  -0.0000  -0.0000   1.6373   0.0000
  15 Ne_a:4f3+  -0.3367   0.0000   0.0000   1.6373
  16 Ne_a:4f1+   0.0000   0.0000  -1.3788  -0.0000
  17 Ne_a:4f3+   1.6819  -0.0000  -0.0000  -1.3788
  18 Ne_a:4f1+  -0.0000  -0.0000   0.5017   0.0000
  19 Ne_a:4f3+  -0.8645   0.0000   0.0000   0.5017

 Molecular orbitals for symmetry species 3  (B2u)
 ------------------------------------------------

    Orbital         1        2        3        4        5        6        7
   1 Ne_a:2py    0.9990   0.0613  -0.1760  -0.8113   0.0000  -0.0000  -0.0000
   2 Ne_a:2py   -0.0000  -0.0086  -0.0410   0.2015  -0.0000   0.0000   0.0000
   3 Ne_a:2py    0.0024   0.0151   0.0678  -0.4559  -0.0000   0.0000   0.0000
   4 Ne_a:2py   -0.0060  -0.0622  -0.4082   2.0619  -0.0000  -0.0000   0.0000
   5 Ne_a:2py    0.0003  -0.0008  -0.0035   0.0176  -0.0000   0.0000   0.0000
   8 Ne_a:2py    0.0084   0.2931   1.6329  -1.1228  -0.0000  -0.0000   0.0000
   9 Ne_a:2py    0.0018  -1.1646  -0.7926   0.3664   0.0000   0.0000  -0.0000
  12 Ne_a:4f3-   0.0000   0.0000  -0.0000  -0.0000   0.0000  -0.0164  -0.0000
  13 Ne_a:4f1-   0.0000   0.0000  -0.0000  -0.0000  -0.0164  -0.0000   0.0524
  14 Ne_a:4f3-  -0.0000  -0.0000   0.0000   0.0000  -0.0000   0.1282   0.0000
  15 Ne_a:4f1-  -0.0000  -0.0000   0.0000   0.0000   0.1282   0.0000  -0.3367
  16 Ne_a:4f3-   0.0000   0.0000  -0.0000  -0.0000   0.0000  -0.4466  -0.0000
  17 Ne_a:4f1-   0.0000   0.0000  -0.0000  -0.0000  -0.4466  -0.0000   1.6819
  18 Ne_a:4f3-  -0.0000  -0.0000   0.0000   0.0000  -0.0000   1.2530   0.0000
  19 Ne_a:4f1-  -0.0000  -0.0000   0.0000   0.0000   1.2530   0.0000  -0.8645

    Orbital         8        9       10       11
   1 Ne_a:2py   -0.0000   0.4878   0.0000   0.0000
   2 Ne_a:2py    0.0000   1.0921  -0.0000  -0.0000
   3 Ne_a:2py    0.0000  -2.2241  -0.0000  -0.0000
   4 Ne_a:2py    0.0000   1.0757  -0.0000  -0.0000
   5 Ne_a:2py    0.0000   0.0752  -0.0000  -0.0000
   8 Ne_a:2py    0.0000  -0.5068  -0.0000  -0.0000
   9 Ne_a:2py   -0.0000   0.1601   0.0000   0.0000
  12 Ne_a:4f3-   0.0524   0.0000   0.0000  -0.0949
  13 Ne_a:4f1-  -0.0000   0.0000  -0.0949   0.0000
  14 Ne_a:4f3-  -0.3367  -0.0000  -0.0000   1.6373
  15 Ne_a:4f1-   0.0000  -0.0000   1.6373  -0.0000
  16 Ne_a:4f3-   1.6819   0.0000   0.0000  -1.3788
  17 Ne_a:4f1-  -0.0000   0.0000  -1.3788   0.0000
  18 Ne_a:4f3-  -0.8645  -0.0000  -0.0000   0.5017
  19 Ne_a:4f1-   0.0000  -0.0000   0.5017  -0.0000

 Molecular orbitals for symmetry species 4  (B1g)
 ------------------------------------------------

    Orbital         1        2        3        4        5        6        7
   3 Ne_a:3d2-   0.0047   0.0086   0.0000   0.0000   0.0598   0.0000   0.0000
   4 Ne_a:3d2-  -0.0147  -0.0815   0.0000   0.0000  -0.0896   0.0000   0.0000
   5 Ne_a:3d2-   0.0871   0.2104   0.0000   0.0000   1.4751   0.0000   0.0000
   6 Ne_a:3d2-  -0.2893  -1.4588   0.0000   0.0000  -1.1565   0.0000   0.0000
   7 Ne_a:3d2-   1.1560   0.7434   0.0000   0.0000   0.4055   0.0000   0.0000
   8 Ne_a:5g4-   0.0000   0.0000   0.0000   0.0553   0.0000   0.0000   0.1888
   9 Ne_a:5g2-   0.0000   0.0000   0.0553   0.0000   0.0000   0.1888   0.0000
  10 Ne_a:5g4-   0.0000   0.0000   0.0000  -0.2567   0.0000   0.0000  -1.3513
  11 Ne_a:5g2-   0.0000   0.0000  -0.2567   0.0000   0.0000  -1.3513   0.0000
  12 Ne_a:5g4-   0.0000   0.0000   0.0000   1.1275   0.0000   0.0000   0.5924
  13 Ne_a:5g2-   0.0000   0.0000   1.1275   0.0000   0.0000   0.5924   0.0000

    Orbital         8        9       10
   2 Ne_a:3d2-   0.0291   0.0000   0.0000
   3 Ne_a:3d2-  -0.0673   0.0000   0.0000
   4 Ne_a:3d2-   1.4182   0.0000   0.0000
   5 Ne_a:3d2-  -1.2331   0.0000   0.0000
   6 Ne_a:3d2-   0.6289   0.0000   0.0000
   7 Ne_a:3d2-  -0.2080   0.0000   0.0000
   8 Ne_a:5g4-   0.0000  -1.2886   0.0000
   9 Ne_a:5g2-   0.0000   0.0000  -1.2886
  10 Ne_a:5g4-   0.0000   0.8118   0.0000
  11 Ne_a:5g2-   0.0000   0.0000   0.8118
  12 Ne_a:5g4-   0.0000  -0.2777   0.0000
  13 Ne_a:5g2-   0.0000   0.0000  -0.2777

 Molecular orbitals for symmetry species 5  (B1u)
 ------------------------------------------------

    Orbital         1        2        3        4        5        6        7
   1 Ne_a:2pz    0.9990   0.0613  -0.1760  -0.8113   0.0000  -0.0000   0.0000
   2 Ne_a:2pz   -0.0000  -0.0086  -0.0410   0.2015  -0.0000   0.0000  -0.0000
   3 Ne_a:2pz    0.0024   0.0151   0.0678  -0.4559  -0.0000   0.0000  -0.0000
   4 Ne_a:2pz   -0.0060  -0.0622  -0.4082   2.0619  -0.0000   0.0000  -0.0000
   5 Ne_a:2pz    0.0003  -0.0008  -0.0035   0.0176  -0.0000   0.0000  -0.0000
   8 Ne_a:2pz    0.0084   0.2931   1.6329  -1.1228   0.0000   0.0000   0.0000
   9 Ne_a:2pz    0.0018  -1.1646  -0.7926   0.3664  -0.0000   0.0000  -0.0000
  12 Ne_a:4f0   -0.0000  -0.0000   0.0000   0.0000  -0.0164   0.0000   0.0524
  13 Ne_a:4f2+   0.0000   0.0000  -0.0000  -0.0000   0.0000  -0.0164   0.0000
  14 Ne_a:4f0    0.0000   0.0000  -0.0000  -0.0000   0.1282  -0.0000  -0.3367
  15 Ne_a:4f2+  -0.0000  -0.0000   0.0000   0.0000  -0.0000   0.1282  -0.0000
  16 Ne_a:4f0   -0.0000  -0.0000   0.0000   0.0000  -0.4466   0.0000   1.6819
  17 Ne_a:4f2+   0.0000   0.0000  -0.0000  -0.0000   0.0000  -0.4466   0.0000
  18 Ne_a:4f0    0.0000   0.0000  -0.0000  -0.0000   1.2530  -0.0000  -0.8645
  19 Ne_a:4f2+  -0.0000  -0.0000   0.0000   0.0000  -0.0000   1.2530  -0.0000

    Orbital         8        9       10       11
   1 Ne_a:2pz    0.0000   0.4878   0.0000   0.0000
   2 Ne_a:2pz   -0.0000   1.0921  -0.0000  -0.0000
   3 Ne_a:2pz   -0.0000  -2.2241  -0.0000  -0.0000
   4 Ne_a:2pz   -0.0000   1.0757  -0.0000  -0.0000
   5 Ne_a:2pz   -0.0000   0.0752  -0.0000  -0.0000
   8 Ne_a:2pz    0.0000  -0.5068  -0.0000   0.0000
   9 Ne_a:2pz   -0.0000   0.1601   0.0000   0.0000
  12 Ne_a:4f0   -0.0000  -0.0000  -0.0000  -0.0949
  13 Ne_a:4f2+   0.0524   0.0000  -0.0949   0.0000
  14 Ne_a:4f0    0.0000   0.0000   0.0000   1.6373
  15 Ne_a:4f2+  -0.3367  -0.0000   1.6373  -0.0000
  16 Ne_a:4f0   -0.0000  -0.0000  -0.0000  -1.3788
  17 Ne_a:4f2+   1.6819   0.0000  -1.3788   0.0000
  18 Ne_a:4f0   -0.0000   0.0000   0.0000   0.5017
  19 Ne_a:4f2+  -0.8645  -0.0000   0.5017  -0.0000

 Molecular orbitals for symmetry species 6  (B2g)
 ------------------------------------------------

    Orbital         1        2        3        4        5        6        7
   3 Ne_a:3d1+   0.0047   0.0086   0.0000   0.0000   0.0598   0.0000   0.0000
   4 Ne_a:3d1+  -0.0147  -0.0815   0.0000   0.0000  -0.0896   0.0000   0.0000
   5 Ne_a:3d1+   0.0871   0.2104   0.0000   0.0000   1.4751   0.0000   0.0000
   6 Ne_a:3d1+  -0.2893  -1.4588   0.0000   0.0000  -1.1565   0.0000   0.0000
   7 Ne_a:3d1+   1.1560   0.7434   0.0000   0.0000   0.4055   0.0000   0.0000
   8 Ne_a:5g1+   0.0000   0.0000   0.0000   0.0553   0.0000   0.1888   0.0000
   9 Ne_a:5g3+   0.0000   0.0000   0.0553   0.0000   0.0000   0.0000   0.1888
  10 Ne_a:5g1+   0.0000   0.0000   0.0000  -0.2567   0.0000  -1.3513   0.0000
  11 Ne_a:5g3+   0.0000   0.0000  -0.2567   0.0000   0.0000   0.0000  -1.3513
  12 Ne_a:5g1+   0.0000   0.0000   0.0000   1.1275   0.0000   0.5924   0.0000
  13 Ne_a:5g3+   0.0000   0.0000   1.1275   0.0000   0.0000   0.0000   0.5924

    Orbital         8        9       10
   2 Ne_a:3d1+   0.0291   0.0000   0.0000
   3 Ne_a:3d1+  -0.0673   0.0000   0.0000
   4 Ne_a:3d1+   1.4182   0.0000   0.0000
   5 Ne_a:3d1+  -1.2331   0.0000   0.0000
   6 Ne_a:3d1+   0.6289   0.0000   0.0000
   7 Ne_a:3d1+  -0.2080   0.0000   0.0000
   8 Ne_a:5g1+   0.0000  -1.2886   0.0000
   9 Ne_a:5g3+   0.0000   0.0000  -1.2886
  10 Ne_a:5g1+   0.0000   0.8118   0.0000
  11 Ne_a:5g3+   0.0000   0.0000   0.8118
  12 Ne_a:5g1+   0.0000  -0.2777   0.0000
  13 Ne_a:5g3+   0.0000   0.0000  -0.2777

 Molecular orbitals for symmetry species 7  (B3g)
 ------------------------------------------------

    Orbital         1        2        3        4        5        6        7
   3 Ne_a:3d1-   0.0047   0.0086   0.0000   0.0000   0.0598   0.0000   0.0000
   4 Ne_a:3d1-  -0.0147  -0.0815   0.0000   0.0000  -0.0896   0.0000   0.0000
   5 Ne_a:3d1-   0.0871   0.2104   0.0000   0.0000   1.4751   0.0000   0.0000
   6 Ne_a:3d1-  -0.2893  -1.4588   0.0000   0.0000  -1.1565   0.0000   0.0000
   7 Ne_a:3d1-   1.1560   0.7434   0.0000   0.0000   0.4055   0.0000   0.0000
   8 Ne_a:5g3-   0.0000   0.0000   0.0553   0.0000   0.0000   0.1888   0.0000
   9 Ne_a:5g1-   0.0000   0.0000   0.0000   0.0553   0.0000   0.0000   0.1888
  10 Ne_a:5g3-   0.0000   0.0000  -0.2567   0.0000   0.0000  -1.3513   0.0000
  11 Ne_a:5g1-   0.0000   0.0000   0.0000  -0.2567   0.0000   0.0000  -1.3513
  12 Ne_a:5g3-   0.0000   0.0000   1.1275   0.0000   0.0000   0.5924   0.0000
  13 Ne_a:5g1-   0.0000   0.0000   0.0000   1.1275   0.0000   0.0000   0.5924

    Orbital         8        9       10
   2 Ne_a:3d1-   0.0291   0.0000   0.0000
   3 Ne_a:3d1-  -0.0673   0.0000   0.0000
   4 Ne_a:3d1-   1.4182   0.0000   0.0000
   5 Ne_a:3d1-  -1.2331   0.0000   0.0000
   6 Ne_a:3d1-   0.6289   0.0000   0.0000
   7 Ne_a:3d1-  -0.2080   0.0000   0.0000
   8 Ne_a:5g3-   0.0000   0.0000  -1.2886
   9 Ne_a:5g1-   0.0000  -1.2886   0.0000
  10 Ne_a:5g3-   0.0000   0.0000   0.8118
  11 Ne_a:5g1-   0.0000   0.8118   0.0000
  12 Ne_a:5g3-   0.0000   0.0000  -0.2777
  13 Ne_a:5g1-   0.0000  -0.2777   0.0000

 Molecular orbitals for symmetry species 8  (Au )
 ------------------------------------------------

    Orbital         1        2        3        4        5
   1 Ne_a:4f2-  -0.0006  -0.0014   0.0048   0.0084   1.0246
   2 Ne_a:4f2-   0.0164   0.0524  -0.0949  -1.2542  -0.2672
   3 Ne_a:4f2-  -0.1282  -0.3367   1.6373   1.0089   0.1850
   4 Ne_a:4f2-   0.4466   1.6819  -1.3788  -0.6514  -0.1242
   5 Ne_a:4f2-  -1.2530  -0.8645   0.5017   0.2308   0.0463

  Total CPU  time used in SIRIUS :   0.46 seconds
  Total wall time used in SIRIUS :   0.46 seconds

 
     Date and time (Linux)  : Wed Jan 11 15:39:03 2023
     Host name              : cn035                                   


                     .---------------------------------------.
                     | End of Wave Function Section (SIRIUS) |
                     `---------------------------------------'



                 .------------------------------------------------.
                 | Starting in Dynamic Property Section (RESPONS) |
                 `------------------------------------------------'


 ----------------------------------------------------------------------------------------
  RESPONSE  -  an MCSCF, MC-srDFT, DFT, SOPPA and SOPPA-srDFT response property program
 ----------------------------------------------------------------------------------------


 -------- OUTPUT FROM RESPONSE INPUT PROCESSING --------




 Linear Response calculation
 ---------------------------

 Print level                                    : IPRLR  =   2
 Maximum number of iterations                   : MAXITL =  60
 Threshold for relative convergence             : THCLR  = 1.000D-03
 Maximum iterations in optimal orbital algorithm: MAXITO =   5

  9 B-frequencies  0.000000D+00  4.612212D-02  9.224425D-02  1.383664D-01  1.844885D-01
  2.306106D-01  2.767327D-01  3.228549D-01  3.689770D-01

    1 second order properties calculated with symmetry no.    2 and labels:

          XDIPLEN 

    1 second order properties calculated with symmetry no.    3 and labels:

          YDIPLEN 

    1 second order properties calculated with symmetry no.    5 and labels:

          ZDIPLEN 


   SCF energy         :     -128.543864576960630
 -- inactive part     :     -128.543864576960630
 -- nuclear repulsion :        0.000000000000000


                     ***************************************
                     *** RHF response calculation (TDHF) ***
                     ***************************************

 ----------------------------------------------------------------
 ----- Linear response calculation
 ----- Symmetry of excitation/property operator(s)    2  ( B3u)
 ----------------------------------------------------------------

 Number of excitations of this symmetry            0
 Number of response properties of this symmetry    1
 Number of C6/C8 properties of this symmetry       0


 Perturbation symmetry.     KSYMOP:           2
 Perturbation spin symmetry.TRPLET:           F
 Orbital variables.         KZWOPT:          93
 Configuration variables.   KZCONF:           0
 Total number of variables. KZVAR :          93


 RSPLR -- linear response calculation for symmetry 2  ( B3u)
 RSPLR -- operator label : XDIPLEN 
 RSPLR -- operator spin  :   0
 RSPLR -- frequencies    :     0.000000  0.046122  0.092244  0.138366  0.184488
                               0.230611  0.276733  0.322855  0.368977



 ---  SOLVING SETS OF LINEAR EQUATIONS FOR LINEAR RESPONSE PROPERTIES ---

 Operator symmetry = 2  ( B3u); triplet =   F


 ** RSPCTL MICROITERATION NUMBER    1

       No.  Residual tot.,    conf., and orb.    Bnorm      Frequency 
      ----------------------------------------------------------------
         1    3.99664D-01  0.00D+00  4.00D-01  9.78D-01    0.00000D+00
         2    4.00050D-01  0.00D+00  4.00D-01  9.82D-01    4.61221D-02
         3    4.01223D-01  0.00D+00  4.01D-01  9.94D-01    9.22442D-02
         4    4.03223D-01  0.00D+00  4.03D-01  1.01D+00    1.38366D-01
         5    4.06124D-01  0.00D+00  4.06D-01  1.04D+00    1.84488D-01
         6    4.10044D-01  0.00D+00  4.10D-01  1.09D+00    2.30611D-01
         7    4.15164D-01  0.00D+00  4.15D-01  1.14D+00    2.76733D-01
         8    4.21771D-01  0.00D+00  4.22D-01  1.21D+00    3.22855D-01
         9    4.30323D-01  0.00D+00  4.30D-01  1.31D+00    3.68977D-01

 ** RSPCTL MICROITERATION NUMBER    2

       No.  Residual tot.,    conf., and orb.    Bnorm      Frequency 
      ----------------------------------------------------------------
         1    9.86856D-03  0.00D+00  9.87D-03  9.83D-01    0.00000D+00
         2    9.87610D-03  0.00D+00  9.88D-03  9.87D-01    4.61221D-02
         3    9.89869D-03  0.00D+00  9.90D-03  9.99D-01    9.22442D-02
         4    9.93626D-03  0.00D+00  9.94D-03  1.02D+00    1.38366D-01
         5    9.98862D-03  0.00D+00  9.99D-03  1.05D+00    1.84488D-01
         6    1.00554D-02  0.00D+00  1.01D-02  1.09D+00    2.30611D-01
         7    1.01359D-02  0.00D+00  1.01D-02  1.15D+00    2.76733D-01
         8    1.02286D-02  0.00D+00  1.02D-02  1.22D+00    3.22855D-01
         9    1.03310D-02  0.00D+00  1.03D-02  1.31D+00    3.68977D-01

 ** RSPCTL MICROITERATION NUMBER    3

       No.  Residual tot.,    conf., and orb.    Bnorm      Frequency 
      ----------------------------------------------------------------
         1    4.48369D-04  0.00D+00  4.48D-04  9.83D-01    0.00000D+00
         2    4.49197D-04  0.00D+00  4.49D-04  9.87D-01    4.61221D-02
         3    4.51717D-04  0.00D+00  4.52D-04  9.99D-01    9.22442D-02
         4    4.56050D-04  0.00D+00  4.56D-04  1.02D+00    1.38366D-01
         5    4.62422D-04  0.00D+00  4.62D-04  1.05D+00    1.84488D-01
         6    4.71195D-04  0.00D+00  4.71D-04  1.09D+00    2.30611D-01
         7    4.82952D-04  0.00D+00  4.83D-04  1.15D+00    2.76733D-01
         8    4.98627D-04  0.00D+00  4.99D-04  1.22D+00    3.22855D-01
         9    5.19782D-04  0.00D+00  5.20D-04  1.31D+00    3.68977D-01

 *** THE REQUESTED    9 SOLUTION VECTORS CONVERGED

 Convergence of RSP solution vectors, threshold = 1.00D-03
 ---------------------------------------------------------------
 (dimension of paired reduced space:   54)
 RSP solution vector no.    1; norm of residual   4.56D-04
 RSP solution vector no.    2; norm of residual   4.55D-04
 RSP solution vector no.    3; norm of residual   4.52D-04
 RSP solution vector no.    4; norm of residual   4.47D-04
 RSP solution vector no.    5; norm of residual   4.41D-04
 RSP solution vector no.    6; norm of residual   4.32D-04
 RSP solution vector no.    7; norm of residual   4.22D-04
 RSP solution vector no.    8; norm of residual   4.09D-04
 RSP solution vector no.    9; norm of residual   3.95D-04

 *** RSPCTL MICROITERATIONS CONVERGED


           Final output of second order properties from linear response
           ------------------------------------------------------------


@ Spin symmetry of operators: singlet

 Note that minus the linear response function: - << A; B >>(omega) is printed.
 The results are of quadratic accuracy using Sellers formula.

@ FREQUENCY INDEPENDENT SECOND ORDER PROPERTIES

@ -<< XDIPLEN  ; XDIPLEN  >> =  2.379728177202E+00

@ FREQUENCY DEPENDENT SECOND ORDER PROPERTIES WITH FREQUENCY :

@    a.u.:  4.6122125D-02
@    cm-1:  1.0122636D+04
@    eV  :  1.2550469D+00
@  kJ/mol:  1.2109362D+02
@    nm  :  9.8788495D+02

@ -<< XDIPLEN  ; XDIPLEN  >> =  2.384200790072E+00

@ FREQUENCY DEPENDENT SECOND ORDER PROPERTIES WITH FREQUENCY :

@    a.u.:  9.2244250D-02
@    cm-1:  2.0245273D+04
@    eV  :  2.5100937D+00
@  kJ/mol:  2.4218724D+02
@    nm  :  4.9394247D+02

@ -<< XDIPLEN  ; XDIPLEN  >> =  2.397783444834E+00

@ FREQUENCY DEPENDENT SECOND ORDER PROPERTIES WITH FREQUENCY :

@    a.u.:  1.3836637D-01
@    cm-1:  3.0367909D+04
@    eV  :  3.7651406D+00
@  kJ/mol:  3.6328086D+02
@    nm  :  3.2929498D+02

@ -<< XDIPLEN  ; XDIPLEN  >> =  2.420989766657E+00

@ FREQUENCY DEPENDENT SECOND ORDER PROPERTIES WITH FREQUENCY :

@    a.u.:  1.8448850D-01
@    cm-1:  4.0490545D+04
@    eV  :  5.0201875D+00
@  kJ/mol:  4.8437448D+02
@    nm  :  2.4697124D+02

@ -<< XDIPLEN  ; XDIPLEN  >> =  2.454744492265E+00

@ FREQUENCY DEPENDENT SECOND ORDER PROPERTIES WITH FREQUENCY :

@    a.u.:  2.3061063D-01
@    cm-1:  5.0613181D+04
@    eV  :  6.2752343D+00
@  kJ/mol:  6.0546810D+02
@    nm  :  1.9757699D+02

@ -<< XDIPLEN  ; XDIPLEN  >> =  2.500505329876E+00

@ FREQUENCY DEPENDENT SECOND ORDER PROPERTIES WITH FREQUENCY :

@    a.u.:  2.7673275D-01
@    cm-1:  6.0735818D+04
@    eV  :  7.5302812D+00
@  kJ/mol:  7.2656172D+02
@    nm  :  1.6464749D+02

@ -<< XDIPLEN  ; XDIPLEN  >> =  2.560480317040E+00

@ FREQUENCY DEPENDENT SECOND ORDER PROPERTIES WITH FREQUENCY :

@    a.u.:  3.2285487D-01
@    cm-1:  7.0858454D+04
@    eV  :  8.7853280D+00
@  kJ/mol:  8.4765534D+02
@    nm  :  1.4112642D+02

@ -<< XDIPLEN  ; XDIPLEN  >> =  2.638015859262E+00

@ FREQUENCY DEPENDENT SECOND ORDER PROPERTIES WITH FREQUENCY :

@    a.u.:  3.6897700D-01
@    cm-1:  8.0981090D+04
@    eV  :  1.0040375D+01
@  kJ/mol:  9.6874896D+02
@    nm  :  1.2348562D+02

@ -<< XDIPLEN  ; XDIPLEN  >> =  2.738319741623E+00


 Time used in linear response calculation is      1.35 CPU seconds for symmetry 2
 ----------------------------------------------------------------
 ----- Linear response calculation
 ----- Symmetry of excitation/property operator(s)    3  ( B2u)
 ----------------------------------------------------------------

 Number of excitations of this symmetry            0
 Number of response properties of this symmetry    1
 Number of C6/C8 properties of this symmetry       0


 Perturbation symmetry.     KSYMOP:           3
 Perturbation spin symmetry.TRPLET:           F
 Orbital variables.         KZWOPT:          93
 Configuration variables.   KZCONF:           0
 Total number of variables. KZVAR :          93


 RSPLR -- linear response calculation for symmetry 3  ( B2u)
 RSPLR -- operator label : YDIPLEN 
 RSPLR -- operator spin  :   0
 RSPLR -- frequencies    :     0.000000  0.046122  0.092244  0.138366  0.184488
                               0.230611  0.276733  0.322855  0.368977



 ---  SOLVING SETS OF LINEAR EQUATIONS FOR LINEAR RESPONSE PROPERTIES ---

 Operator symmetry = 3  ( B2u); triplet =   F


 ** RSPCTL MICROITERATION NUMBER    1

       No.  Residual tot.,    conf., and orb.    Bnorm      Frequency 
      ----------------------------------------------------------------
         1    6.26546D-01  0.00D+00  6.27D-01  9.78D-01    0.00000D+00
         2    6.26864D-01  0.00D+00  6.27D-01  9.82D-01    4.61221D-02
         3    6.27821D-01  0.00D+00  6.28D-01  9.94D-01    9.22442D-02
         4    6.29427D-01  0.00D+00  6.29D-01  1.01D+00    1.38366D-01
         5    6.31700D-01  0.00D+00  6.32D-01  1.04D+00    1.84488D-01
         6    6.34668D-01  0.00D+00  6.35D-01  1.08D+00    2.30611D-01
         7    6.38370D-01  0.00D+00  6.38D-01  1.14D+00    2.76733D-01
         8    6.42864D-01  0.00D+00  6.43D-01  1.21D+00    3.22855D-01
         9    6.48240D-01  0.00D+00  6.48D-01  1.31D+00    3.68977D-01

 ** RSPCTL MICROITERATION NUMBER    2

       No.  Residual tot.,    conf., and orb.    Bnorm      Frequency 
      ----------------------------------------------------------------
         1    1.76221D-02  0.00D+00  1.76D-02  9.83D-01    0.00000D+00
         2    1.76394D-02  0.00D+00  1.76D-02  9.87D-01    4.61221D-02
         3    1.76913D-02  0.00D+00  1.77D-02  9.99D-01    9.22442D-02
         4    1.77782D-02  0.00D+00  1.78D-02  1.02D+00    1.38366D-01
         5    1.79003D-02  0.00D+00  1.79D-02  1.05D+00    1.84488D-01
         6    1.80580D-02  0.00D+00  1.81D-02  1.09D+00    2.30611D-01
         7    1.82516D-02  0.00D+00  1.83D-02  1.15D+00    2.76733D-01
         8    1.84808D-02  0.00D+00  1.85D-02  1.22D+00    3.22855D-01
         9    1.87441D-02  0.00D+00  1.87D-02  1.31D+00    3.68977D-01

 ** RSPCTL MICROITERATION NUMBER    3

       No.  Residual tot.,    conf., and orb.    Bnorm      Frequency 
      ----------------------------------------------------------------
         1    4.58755D-04  0.00D+00  4.59D-04  9.83D-01    0.00000D+00
         2    4.59416D-04  0.00D+00  4.59D-04  9.87D-01    4.61221D-02
         3    4.61402D-04  0.00D+00  4.61D-04  9.99D-01    9.22442D-02
         4    4.64718D-04  0.00D+00  4.65D-04  1.02D+00    1.38366D-01
         5    4.69373D-04  0.00D+00  4.69D-04  1.05D+00    1.84488D-01
         6    4.75373D-04  0.00D+00  4.75D-04  1.09D+00    2.30611D-01
         7    4.82718D-04  0.00D+00  4.83D-04  1.15D+00    2.76733D-01
         8    4.91384D-04  0.00D+00  4.91D-04  1.22D+00    3.22855D-01
         9    5.01302D-04  0.00D+00  5.01D-04  1.31D+00    3.68977D-01

 *** THE REQUESTED    9 SOLUTION VECTORS CONVERGED

 Convergence of RSP solution vectors, threshold = 1.00D-03
 ---------------------------------------------------------------
 (dimension of paired reduced space:   54)
 RSP solution vector no.    1; norm of residual   4.66D-04
 RSP solution vector no.    2; norm of residual   4.65D-04
 RSP solution vector no.    3; norm of residual   4.62D-04
 RSP solution vector no.    4; norm of residual   4.56D-04
 RSP solution vector no.    5; norm of residual   4.47D-04
 RSP solution vector no.    6; norm of residual   4.36D-04
 RSP solution vector no.    7; norm of residual   4.22D-04
 RSP solution vector no.    8; norm of residual   4.04D-04
 RSP solution vector no.    9; norm of residual   3.81D-04

 *** RSPCTL MICROITERATIONS CONVERGED


           Final output of second order properties from linear response
           ------------------------------------------------------------


@ Spin symmetry of operators: singlet

 Note that minus the linear response function: - << A; B >>(omega) is printed.
 The results are of quadratic accuracy using Sellers formula.

@ FREQUENCY INDEPENDENT SECOND ORDER PROPERTIES

@ -<< YDIPLEN  ; YDIPLEN  >> =  2.379728178657E+00

@ FREQUENCY DEPENDENT SECOND ORDER PROPERTIES WITH FREQUENCY :

@    a.u.:  4.6122125D-02
@    cm-1:  1.0122636D+04
@    eV  :  1.2550469D+00
@  kJ/mol:  1.2109362D+02
@    nm  :  9.8788495D+02

@ -<< YDIPLEN  ; YDIPLEN  >> =  2.384200791526E+00

@ FREQUENCY DEPENDENT SECOND ORDER PROPERTIES WITH FREQUENCY :

@    a.u.:  9.2244250D-02
@    cm-1:  2.0245273D+04
@    eV  :  2.5100937D+00
@  kJ/mol:  2.4218724D+02
@    nm  :  4.9394247D+02

@ -<< YDIPLEN  ; YDIPLEN  >> =  2.397783446287E+00

@ FREQUENCY DEPENDENT SECOND ORDER PROPERTIES WITH FREQUENCY :

@    a.u.:  1.3836637D-01
@    cm-1:  3.0367909D+04
@    eV  :  3.7651406D+00
@  kJ/mol:  3.6328086D+02
@    nm  :  3.2929498D+02

@ -<< YDIPLEN  ; YDIPLEN  >> =  2.420989768109E+00

@ FREQUENCY DEPENDENT SECOND ORDER PROPERTIES WITH FREQUENCY :

@    a.u.:  1.8448850D-01
@    cm-1:  4.0490545D+04
@    eV  :  5.0201875D+00
@  kJ/mol:  4.8437448D+02
@    nm  :  2.4697124D+02

@ -<< YDIPLEN  ; YDIPLEN  >> =  2.454744493718E+00

@ FREQUENCY DEPENDENT SECOND ORDER PROPERTIES WITH FREQUENCY :

@    a.u.:  2.3061063D-01
@    cm-1:  5.0613181D+04
@    eV  :  6.2752343D+00
@  kJ/mol:  6.0546810D+02
@    nm  :  1.9757699D+02

@ -<< YDIPLEN  ; YDIPLEN  >> =  2.500505331336E+00

@ FREQUENCY DEPENDENT SECOND ORDER PROPERTIES WITH FREQUENCY :

@    a.u.:  2.7673275D-01
@    cm-1:  6.0735818D+04
@    eV  :  7.5302812D+00
@  kJ/mol:  7.2656172D+02
@    nm  :  1.6464749D+02

@ -<< YDIPLEN  ; YDIPLEN  >> =  2.560480318521E+00

@ FREQUENCY DEPENDENT SECOND ORDER PROPERTIES WITH FREQUENCY :

@    a.u.:  3.2285487D-01
@    cm-1:  7.0858454D+04
@    eV  :  8.7853280D+00
@  kJ/mol:  8.4765534D+02
@    nm  :  1.4112642D+02

@ -<< YDIPLEN  ; YDIPLEN  >> =  2.638015860794E+00

@ FREQUENCY DEPENDENT SECOND ORDER PROPERTIES WITH FREQUENCY :

@    a.u.:  3.6897700D-01
@    cm-1:  8.0981090D+04
@    eV  :  1.0040375D+01
@  kJ/mol:  9.6874896D+02
@    nm  :  1.2348562D+02

@ -<< YDIPLEN  ; YDIPLEN  >> =  2.738319743263E+00


 Time used in linear response calculation is      1.35 CPU seconds for symmetry 3
 ----------------------------------------------------------------
 ----- Linear response calculation
 ----- Symmetry of excitation/property operator(s)    5  ( B1u)
 ----------------------------------------------------------------

 Number of excitations of this symmetry            0
 Number of response properties of this symmetry    1
 Number of C6/C8 properties of this symmetry       0


 Perturbation symmetry.     KSYMOP:           5
 Perturbation spin symmetry.TRPLET:           F
 Orbital variables.         KZWOPT:          93
 Configuration variables.   KZCONF:           0
 Total number of variables. KZVAR :          93


 RSPLR -- linear response calculation for symmetry 5  ( B1u)
 RSPLR -- operator label : ZDIPLEN 
 RSPLR -- operator spin  :   0
 RSPLR -- frequencies    :     0.000000  0.046122  0.092244  0.138366  0.184488
                               0.230611  0.276733  0.322855  0.368977



 ---  SOLVING SETS OF LINEAR EQUATIONS FOR LINEAR RESPONSE PROPERTIES ---

 Operator symmetry = 5  ( B1u); triplet =   F


 ** RSPCTL MICROITERATION NUMBER    1

       No.  Residual tot.,    conf., and orb.    Bnorm      Frequency 
      ----------------------------------------------------------------
         1    3.32081D-01  0.00D+00  3.32D-01  9.78D-01    0.00000D+00
         2    3.32414D-01  0.00D+00  3.32D-01  9.82D-01    4.61221D-02
         3    3.33427D-01  0.00D+00  3.33D-01  9.94D-01    9.22442D-02
         4    3.35161D-01  0.00D+00  3.35D-01  1.01D+00    1.38366D-01
         5    3.37690D-01  0.00D+00  3.38D-01  1.04D+00    1.84488D-01
         6    3.41135D-01  0.00D+00  3.41D-01  1.08D+00    2.30611D-01
         7    3.45688D-01  0.00D+00  3.46D-01  1.14D+00    2.76733D-01
         8    3.51651D-01  0.00D+00  3.52D-01  1.21D+00    3.22855D-01
         9    3.59528D-01  0.00D+00  3.60D-01  1.31D+00    3.68977D-01

 ** RSPCTL MICROITERATION NUMBER    2

       No.  Residual tot.,    conf., and orb.    Bnorm      Frequency 
      ----------------------------------------------------------------
         1    1.08192D-02  0.00D+00  1.08D-02  9.83D-01    0.00000D+00
         2    1.08263D-02  0.00D+00  1.08D-02  9.87D-01    4.61221D-02
         3    1.08474D-02  0.00D+00  1.08D-02  9.99D-01    9.22442D-02
         4    1.08822D-02  0.00D+00  1.09D-02  1.02D+00    1.38366D-01
         5    1.09296D-02  0.00D+00  1.09D-02  1.05D+00    1.84488D-01
         6    1.09884D-02  0.00D+00  1.10D-02  1.09D+00    2.30611D-01
         7    1.10559D-02  0.00D+00  1.11D-02  1.15D+00    2.76733D-01
         8    1.11281D-02  0.00D+00  1.11D-02  1.22D+00    3.22855D-01
         9    1.11978D-02  0.00D+00  1.12D-02  1.31D+00    3.68977D-01

 ** RSPCTL MICROITERATION NUMBER    3

       No.  Residual tot.,    conf., and orb.    Bnorm      Frequency 
      ----------------------------------------------------------------
         1    7.21390D-04  0.00D+00  7.21D-04  9.83D-01    0.00000D+00
         2    7.23002D-04  0.00D+00  7.23D-04  9.87D-01    4.61221D-02
         3    7.27881D-04  0.00D+00  7.28D-04  9.99D-01    9.22442D-02
         4    7.36162D-04  0.00D+00  7.36D-04  1.02D+00    1.38366D-01
         5    7.48086D-04  0.00D+00  7.48D-04  1.05D+00    1.84488D-01
         6    7.64025D-04  0.00D+00  7.64D-04  1.09D+00    2.30611D-01
         7    7.84530D-04  0.00D+00  7.85D-04  1.15D+00    2.76733D-01
         8    8.10420D-04  0.00D+00  8.10D-04  1.22D+00    3.22855D-01
         9    8.42946D-04  0.00D+00  8.43D-04  1.31D+00    3.68977D-01

 *** THE REQUESTED    9 SOLUTION VECTORS CONVERGED

 Convergence of RSP solution vectors, threshold = 1.00D-03
 ---------------------------------------------------------------
 (dimension of paired reduced space:   54)
 RSP solution vector no.    1; norm of residual   7.34D-04
 RSP solution vector no.    2; norm of residual   7.32D-04
 RSP solution vector no.    3; norm of residual   7.29D-04
 RSP solution vector no.    4; norm of residual   7.22D-04
 RSP solution vector no.    5; norm of residual   7.13D-04
 RSP solution vector no.    6; norm of residual   7.01D-04
 RSP solution vector no.    7; norm of residual   6.85D-04
 RSP solution vector no.    8; norm of residual   6.66D-04
 RSP solution vector no.    9; norm of residual   6.41D-04

 *** RSPCTL MICROITERATIONS CONVERGED


           Final output of second order properties from linear response
           ------------------------------------------------------------


@ Spin symmetry of operators: singlet

 Note that minus the linear response function: - << A; B >>(omega) is printed.
 The results are of quadratic accuracy using Sellers formula.

@ FREQUENCY INDEPENDENT SECOND ORDER PROPERTIES

@ -<< ZDIPLEN  ; ZDIPLEN  >> =  2.379728179753E+00

@ FREQUENCY DEPENDENT SECOND ORDER PROPERTIES WITH FREQUENCY :

@    a.u.:  4.6122125D-02
@    cm-1:  1.0122636D+04
@    eV  :  1.2550469D+00
@  kJ/mol:  1.2109362D+02
@    nm  :  9.8788495D+02

@ -<< ZDIPLEN  ; ZDIPLEN  >> =  2.384200792621E+00

@ FREQUENCY DEPENDENT SECOND ORDER PROPERTIES WITH FREQUENCY :

@    a.u.:  9.2244250D-02
@    cm-1:  2.0245273D+04
@    eV  :  2.5100937D+00
@  kJ/mol:  2.4218724D+02
@    nm  :  4.9394247D+02

@ -<< ZDIPLEN  ; ZDIPLEN  >> =  2.397783447378E+00

@ FREQUENCY DEPENDENT SECOND ORDER PROPERTIES WITH FREQUENCY :

@    a.u.:  1.3836637D-01
@    cm-1:  3.0367909D+04
@    eV  :  3.7651406D+00
@  kJ/mol:  3.6328086D+02
@    nm  :  3.2929498D+02

@ -<< ZDIPLEN  ; ZDIPLEN  >> =  2.420989769193E+00

@ FREQUENCY DEPENDENT SECOND ORDER PROPERTIES WITH FREQUENCY :

@    a.u.:  1.8448850D-01
@    cm-1:  4.0490545D+04
@    eV  :  5.0201875D+00
@  kJ/mol:  4.8437448D+02
@    nm  :  2.4697124D+02

@ -<< ZDIPLEN  ; ZDIPLEN  >> =  2.454744494791E+00

@ FREQUENCY DEPENDENT SECOND ORDER PROPERTIES WITH FREQUENCY :

@    a.u.:  2.3061063D-01
@    cm-1:  5.0613181D+04
@    eV  :  6.2752343D+00
@  kJ/mol:  6.0546810D+02
@    nm  :  1.9757699D+02

@ -<< ZDIPLEN  ; ZDIPLEN  >> =  2.500505332391E+00

@ FREQUENCY DEPENDENT SECOND ORDER PROPERTIES WITH FREQUENCY :

@    a.u.:  2.7673275D-01
@    cm-1:  6.0735818D+04
@    eV  :  7.5302812D+00
@  kJ/mol:  7.2656172D+02
@    nm  :  1.6464749D+02

@ -<< ZDIPLEN  ; ZDIPLEN  >> =  2.560480319548E+00

@ FREQUENCY DEPENDENT SECOND ORDER PROPERTIES WITH FREQUENCY :

@    a.u.:  3.2285487D-01
@    cm-1:  7.0858454D+04
@    eV  :  8.7853280D+00
@  kJ/mol:  8.4765534D+02
@    nm  :  1.4112642D+02

@ -<< ZDIPLEN  ; ZDIPLEN  >> =  2.638015861775E+00

@ FREQUENCY DEPENDENT SECOND ORDER PROPERTIES WITH FREQUENCY :

@    a.u.:  3.6897700D-01
@    cm-1:  8.0981090D+04
@    eV  :  1.0040375D+01
@  kJ/mol:  9.6874896D+02
@    nm  :  1.2348562D+02

@ -<< ZDIPLEN  ; ZDIPLEN  >> =  2.738319744170E+00


 Time used in linear response calculation is      1.35 CPU seconds for symmetry 5

  Total CPU  time used in RESPONSE:   4.05 seconds
  Total wall time used in RESPONSE:   4.07 seconds


                   .-------------------------------------------.
                   | End of Dynamic Property Section (RESPONS) |
                   `-------------------------------------------'

  Total CPU  time used in DALTON:   4.91 seconds
  Total wall time used in DALTON:   4.94 seconds

 
     Date and time (Linux)  : Wed Jan 11 15:39:07 2023
     Host name              : cn035                                   
