

     ************************************************************************
     *************** Dalton - An Electronic Structure Program ***************
     ************************************************************************

    This is output from DALTON release Dalton2020.0 (2020)
         ( Web site: http://daltonprogram.org )

   ----------------------------------------------------------------------------

    NOTE:
     
    Dalton is an experimental code for the evaluation of molecular
    properties using (MC)SCF, DFT, CI, and CC wave functions.
    The authors accept no responsibility for the performance of
    the code or for the correctness of the results.
     
    The code (in whole or part) is provided under a licence and
    is not to be reproduced for further distribution without
    the written permission of the authors or their representatives.
     
    See the home page "http://daltonprogram.org" for further information.
     
    If results obtained with this code are published,
    the appropriate citations would be both of:
     
       K. Aidas, C. Angeli, K. L. Bak, V. Bakken, R. Bast,
       L. Boman, O. Christiansen, R. Cimiraglia, S. Coriani,
       P. Dahle, E. K. Dalskov, U. Ekstroem,
       T. Enevoldsen, J. J. Eriksen, P. Ettenhuber, B. Fernandez,
       L. Ferrighi, H. Fliegl, L. Frediani, K. Hald, A. Halkier,
       C. Haettig, H. Heiberg, T. Helgaker, A. C. Hennum,
       H. Hettema, E. Hjertenaes, S. Hoest, I.-M. Hoeyvik,
       M. F. Iozzi, B. Jansik, H. J. Aa. Jensen, D. Jonsson,
       P. Joergensen, J. Kauczor, S. Kirpekar,
       T. Kjaergaard, W. Klopper, S. Knecht, R. Kobayashi, H. Koch,
       J. Kongsted, A. Krapp, K. Kristensen, A. Ligabue,
       O. B. Lutnaes, J. I. Melo, K. V. Mikkelsen, R. H. Myhre,
       C. Neiss, C. B. Nielsen, P. Norman, J. Olsen,
       J. M. H. Olsen, A. Osted, M. J. Packer, F. Pawlowski,
       T. B. Pedersen, P. F. Provasi, S. Reine, Z. Rinkevicius,
       T. A. Ruden, K. Ruud, V. Rybkin, P. Salek, C. C. M. Samson,
       A. Sanchez de Meras, T. Saue, S. P. A. Sauer,
       B. Schimmelpfennig, K. Sneskov, A. H. Steindal,
       K. O. Sylvester-Hvid, P. R. Taylor, A. M. Teale,
       E. I. Tellgren, D. P. Tew, A. J. Thorvaldsen, L. Thoegersen,
       O. Vahtras, M. A. Watson, D. J. D. Wilson, M. Ziolkowski
       and H. Agren,
       "The Dalton quantum chemistry program system",
       WIREs Comput. Mol. Sci. 2014, 4:269–284 (doi: 10.1002/wcms.1172)
     
    and
     
       Dalton, a molecular electronic structure program,
       Release Dalton2020.0 (2020), see http://daltonprogram.org
   ----------------------------------------------------------------------------

    Authors in alphabetical order (Major contribution(s) in parenthesis):

  Kestutis Aidas,           Vilnius University,           Lithuania   (QM/MM)
  Celestino Angeli,         University of Ferrara,        Italy       (NEVPT2)
  Keld L. Bak,              UNI-C,                        Denmark     (AOSOPPA, non-adiabatic coupling, magnetic properties)
  Vebjoern Bakken,          University of Oslo,           Norway      (DALTON; geometry optimizer, symmetry detection)
  Radovan Bast,             UiT The Arctic U. of Norway,  Norway      (DALTON installation and execution frameworks)
  Pablo Baudin,             University of Valencia,       Spain       (Cholesky excitation energies)
  Linus Boman,              NTNU,                         Norway      (Cholesky decomposition and subsystems)
  Bruno N. Cabral Tenorio,  Technical Univ. of Denmark,   Denmark     (Lanczos-based CC methods)
  Ove Christiansen,         Aarhus University,            Denmark     (CC module)
  Renzo Cimiraglia,         University of Ferrara,        Italy       (NEVPT2)
  Sonia Coriani,            Technical Univ. of Denmark,   Denmark     (CC and RESPONS modules)
  Janusz Cukras,            University of Warsaw,         Poland      (MChD in RESPONS)
  Paal Dahle,               University of Oslo,           Norway      (Parallelization)
  Erik K. Dalskov,          UNI-C,                        Denmark     (SOPPA)
  Thomas Enevoldsen,        Univ. of Southern Denmark,    Denmark     (SOPPA)
  Janus J. Eriksen,         Aarhus University,            Denmark     (Polarizable embedding, TDA)
  Rasmus Faber,             Technical Univ. of Denmark,   Denmark     (Vib.avg. NMR w. SOPPA, parallel AO-SOPPA, CVS-CC and EOMCC)
  Tobias Fahleson,          KTH Stockholm,                Sweden      (Damped cubic response)
  Berta Fernandez,          U. of Santiago de Compostela, Spain       (Doublet spin, ESR in RESPONS)
  Lara Ferrighi,            Aarhus University,            Denmark     (PCM Cubic response)
  Heike Fliegl,             University of Oslo,           Norway      (CCSD(R12))
  Luca Frediani,            UiT The Arctic U. of Norway,  Norway      (PCM)
  Emmanuel Fromager,        Univ. Strasbourg,             France      (MC-srDFT)
  Bin Gao,                  UiT The Arctic U. of Norway,  Norway      (Gen1Int library)
  Andre S. P. Gomes,        CNRS/Universite de Lille,     France      (Frozen density embedding)
  Christof Haettig,         Ruhr-University Bochum,       Germany     (CC module)
  Kasper Hald,              Aarhus University,            Denmark     (CC module)
  Asger Halkier,            Aarhus University,            Denmark     (CC module)
  Frederik Beyer Hansen,    University of Copenhagen,     Denmark     (Parallel AO-SOPPA)
  Erik D. Hedegaard,        Univ. of Southern Denmark,    Denmark     (Polarizable embedding, QM/MM, and MC-srDFT)
  Hanne Heiberg,            University of Oslo,           Norway      (Geometry analysis, selected one-electron integrals)
  Trygve Helgaker,          University of Oslo,           Norway      (DALTON; ABACUS, ERI, DFT modules, London, and much more)
  Alf Christian Hennum,     University of Oslo,           Norway      (Parity violation)
  Hinne Hettema,            University of Auckland,       New Zealand (Quadratic response in RESPONS; SIRIUS supersymmetry)
  Eirik Hjertenaes,         NTNU,                         Norway      (Cholesky decomposition)
  Pi A. B. Haase,           University of Copenhagen,     Denmark     (Triplet AO-SOPPA)
  Maria Francesca Iozzi,    University of Oslo,           Norway      (RPA)
  Christoph Jacob           TU Braunschweig               Germany     (Frozen density embedding)
  Brano Jansik              Technical Univ. of Ostrava    Czech Rep.  (DFT cubic response)
  Hans Joergen Aa. Jensen,  Univ. of Southern Denmark,    Denmark     (DALTON; SIRIUS, RESPONS, ABACUS, MC-srDFT, and much more)
  Dan Jonsson,              UiT The Arctic U. of Norway,  Norway      (Cubic response in RESPONS module)
  Poul Joergensen,          Aarhus University,            Denmark     (RESPONS, ABACUS, and CC modules)
  Maciej Kaminski,          University of Warsaw,         Poland      (CPPh in RESPONS)
  Joanna Kauczor,           Linkoeping University,        Sweden      (Complex polarization propagator (CPP) module)
  Sheela Kirpekar,          Univ. of Southern Denmark,    Denmark     (Mass-velocity & Darwin integrals)
  Erik Kjellgren,           Univ. of Southern Denmark,    Denmark     (MC-srDFT)
  Wim Klopper,              KIT Karlsruhe,                Germany     (R12 code in CC, SIRIUS, and ABACUS modules)
  Stefan Knecht,            ETH Zurich,                   Switzerland (Parallel CI and MCSCF, MC-srDFT)
  Rika Kobayashi,           Australian National Univ.,    Australia   (DIIS in CC, London in MCSCF)
  Henrik Koch,              NTNU,                         Norway      (CC module, Cholesky decomposition)
  Jacob Kongsted,           Univ. of Southern Denmark,    Denmark     (Polarizable embedding, polarizable density embedding, QM/MM)
  Andrea Ligabue,           University of Modena,         Italy       (CTOCD, AOSOPPA)
  Nanna H. List             Univ. of Southern Denmark,    Denmark     (Polarizable embedding)
  Ola B. Lutnaes,           University of Oslo,           Norway      (DFT Hessian)
  Juan I. Melo,             University of Buenos Aires,   Argentina   (LRESC, Relativistic Effects on NMR Shieldings)
  Kurt V. Mikkelsen,        University of Copenhagen,     Denmark     (MC-SCRF and QM/MM)
  Rolf H. Myhre,            NTNU,                         Norway      (Subsystems and CC3)
  Christian Neiss,          Univ. Erlangen-Nuernberg,     Germany     (CCSD(R12))
  Christian B. Nielsen,     University of Copenhagen,     Denmark     (QM/MM)
  Patrick Norman,           KTH Stockholm,                Sweden      (Cubic response and complex frequency response in RESPONS)
  Jeppe Olsen,              Aarhus University,            Denmark     (SIRIUS CI/density modules)
  Jogvan Magnus H. Olsen,   Aarhus University,            Denmark     (Polarizable embedding and polarizable density embedding)
  Anders Osted,             Copenhagen University,        Denmark     (QM/MM)
  Martin J. Packer,         University of Sheffield,      UK          (SOPPA)
  Filip Pawlowski,          Kazimierz Wielki University,  Poland      (CC3)
  Morten N. Pedersen,       Univ. of Southern Denmark,    Denmark     (Polarizable embedding)
  Thomas B. Pedersen,       University of Oslo,           Norway      (Cholesky decomposition)
  Patricio F. Provasi,      University of Northeastern,   Argentina   (Analysis of coupling constants in localized orbitals)
  Peter Reinholdt,          Univ. of Southern Denmark,    Denmark     (Polarizable embedding and polarizable density embedding)
  Zilvinas Rinkevicius,     KTH Stockholm,                Sweden      (open-shell DFT, ESR)
  Elias Rudberg,            KTH Stockholm,                Sweden      (DFT grid and basis info)
  Torgeir A. Ruden,         University of Oslo,           Norway      (Numerical derivatives in ABACUS)
  Kenneth Ruud,             UiT The Arctic U. of Norway,  Norway      (DALTON; ABACUS magnetic properties and much more)
  Pawel Salek,              KTH Stockholm,                Sweden      (DALTON; DFT code)
  Claire C. M. Samson       University of Karlsruhe       Germany     (Boys localization, r12 integrals in ERI)
  Alfredo Sanchez de Meras, University of Valencia,       Spain       (CC module, Cholesky decomposition)
  Trond Saue,               Paul Sabatier University,     France      (direct Fock matrix construction)
  Stephan P. A. Sauer,      University of Copenhagen,     Denmark     (SOPPA(CCSD), SOPPA prop., AOSOPPA, vibrational g-factors)
  Bernd Schimmelpfennig,    Forschungszentrum Karlsruhe,  Germany     (AMFI module)
  Anna K. Schnack-Petersen, University of Copenhagen,     Denmark     (RPA(D) and HRPA(D) properties in AOSOPPA)
  Kristian Sneskov,         Aarhus University,            Denmark     (Polarizable embedding, QM/MM)
  Arnfinn H. Steindal,      UiT The Arctic U. of Norway,  Norway      (parallel QM/MM, polarizable embedding)
  Casper Steinmann,         Aalborg University,           Denmark     (QFIT, polarizable embedding)
  K. O. Sylvester-Hvid,     University of Copenhagen,     Denmark     (MC-SCRF)
  Peter R. Taylor,          VLSCI/Univ. of Melbourne,     Australia   (Symmetry handling ABACUS, integral transformation)
  Andrew M. Teale,          University of Nottingham,     England     (DFT-AC, DFT-D)
  David P. Tew,             University of Bristol,        England     (CCSD(R12))
  Julien Toulouse,          Sorbonne Univ.,               France      (MC-srDFT)
  Olav Vahtras,             KTH Stockholm,                Sweden      (Triplet response, spin-orbit, ESR, TDDFT, open-shell DFT)
  Lucas Visscher,           Vrije Universiteit Amsterdam, Netherlands (Frozen density embedding)
  David J. Wilson,          La Trobe University,          Australia   (DFT Hessian and DFT magnetizabilities)
  Hans Agren,               KTH Stockholm,                Sweden      (SIRIUS module, RESPONS, MC-SCRF solvation)
 --------------------------------------------------------------------------------

     Date and time (Linux)  : Wed Jan 11 14:14:59 2023
     Host name              : cn020                                   

 * Work memory size             :    64000000 =  488.28 megabytes.

 * Directories for basis set searches:
   1) /gpfs/projects/rjh/adrian/fd_compare/dalton/hf/Mg/dipole
   2) /gpfs/projects/rjh/adrian/dalton/build/basis


Compilation information
-----------------------

 Who compiled             | ahurtado
 Host                     | sn-mem
 System                   | Linux-3.10.0-1160.24.1.el7.x86_64
 CMake generator          | Unix Makefiles
 Processor                | x86_64
 64-bit integers          | OFF
 MPI                      | ON
 Fortran compiler         | /gpfs/software/intel/oneAPI/2021_4/mpi/2021.4.0/bi
                          | n/mpif90
 Fortran compiler version | GNU Fortran (GCC) 11.2.0
 C compiler               | /gpfs/software/intel/oneAPI/2021_4/mpi/2021.4.0/bi
                          | n/mpicc
 C compiler version       | gcc (GCC) 11.2.0
 C++ compiler             | /gpfs/software/intel/oneAPI/2021_4/mpi/2021.4.0/bi
                          | n/mpicxx
 C++ compiler version     | unknown
 BLAS                     | /gpfs/software/intel/oneAPI/2021_4/mkl/2021.4.0/li
                          | b/intel64/libmkl_gf_lp64.so;/gpfs/software/intel/o
                          | neAPI/2021_4/mkl/2021.4.0/lib/intel64/libmkl_seque
                          | ntial.so;/gpfs/software/intel/oneAPI/2021_4/mkl/20
                          | 21.4.0/lib/intel64/libmkl_core.so;/usr/lib64/libpt
                          | hread.so;/usr/lib64/libm.so
 LAPACK                   | /gpfs/software/intel/oneAPI/2021_4/mkl/2021.4.0/li
                          | b/intel64/libmkl_lapack95_lp64.a;/gpfs/software/in
                          | tel/oneAPI/2021_4/mkl/2021.4.0/lib/intel64/libmkl_
                          | gf_lp64.so
 Static linking           | OFF
 Last Git revision        | 66052b3af5ea7225e31178bf9a8b031913c72190
 Git branch               | (HEAD detached at Dalton2020.0)
 Configuration time       | 2023-01-11 13:33:37.731835

 * MPI parallel run using 20 processes.


   Content of the .dal input file
 ----------------------------------

**DALTON INPUT
.RUN RESPONSE
.DIRECT
**WAVE FUNCTIONS
.HF
**RESPONSE
*LINEAR
.DIPLEN
.FREQUENCIES
9
0.0 0.009319375 0.01863875 0.027958125 0.0372775 0.046596874999999996 0.05591625 0.06523562499999999
**END OF DALTON INPUT


   Content of the .mol file
 ----------------------------

BASIS
aug-cc-pCVQZ
blah
blah
Atomtype=1 Atomic
Charge=12 Atoms=1
Mg_a 0.000000000000 0.000000000000 0.000000000000


       *******************************************************************
       *********** Output from DALTON general input processing ***********
       *******************************************************************

 --------------------------------------------------------------------------------
   Overall default print level:    0
   Print level for DALTON.STAT:    1

    Parallel calculation using MPI
    AO-direct calculation (in sections where implemented)
    HERMIT 1- and 2-electron integral sections will be executed
    "Old" integral transformation used (limited to max 255 basis functions)
    Wave function sections will be executed (SIRIUS module)
    Dynamic molecular response properties section will be executed (RESPONSE module)
 --------------------------------------------------------------------------------


   ****************************************************************************
   *************** Output of molecule and basis set information ***************
   ****************************************************************************


    The two title cards from your ".mol" input:
    ------------------------------------------------------------------------
 1: blah                                                                    
 2: blah                                                                    
    ------------------------------------------------------------------------

  Atomic type no.    1
  --------------------
  Nuclear charge:  12.00000
  Number of symmetry independent centers:    1
  Number of basis sets to read;    2
  Basis set file used for this atomic type with Z =  12 :
     "/gpfs/projects/rjh/adrian/dalton/build/basis/aug-cc-pCVQZ"


                      SYMADD: Requested addition of symmetry
                      --------------------------------------

 Symmetry test threshold:  5.00E-06

@   The molecule is centered at center of mass and rotated
@   so principal axes of inertia are along coordinate axes.

 Symmetry class found: D(oo,h)        

 Symmetry Independent Centres             
 ----------------------------
Mg_a  12 :      0.00000000     0.00000000     0.00000000  Isotope  1

 The following symmetry elements were found:   X  Y  Z  


                         SYMGRP: Point group information
                         -------------------------------

@    Full point group is: D(oo,h)        
@    Represented as:      D2h

@  * The irrep name for each symmetry:    1: Ag     2: B3u    3: B2u    4: B1g    5: B1u    6: B2g    7: B3g    8: Au 


   * The point group was generated by:

      Reflection in the yz-plane
      Reflection in the xz-plane
      Reflection in the xy-plane

   * Group multiplication table

        |  E   C2z  C2y  C2x   i   Oxy  Oxz  Oyz
   -----+----------------------------------------
     E  |  E   C2z  C2y  C2x   i   Oxy  Oxz  Oyz
    C2z | C2z   E   C2x  C2y  Oxy   i   Oyz  Oxz
    C2y | C2y  C2x   E   C2z  Oxz  Oyz   i   Oxy
    C2x | C2x  C2y  C2z   E   Oyz  Oxz  Oxy   i 
     i  |  i   Oxy  Oxz  Oyz   E   C2z  C2y  C2x
    Oxy | Oxy   i   Oyz  Oxz  C2z   E   C2x  C2y
    Oxz | Oxz  Oyz   i   Oxy  C2y  C2x   E   C2z
    Oyz | Oyz  Oxz  Oxy   i   C2x  C2y  C2z   E 

   * Character table

        |  E   C2z  C2y  C2x   i   Oxy  Oxz  Oyz
   -----+----------------------------------------
    Ag  |   1    1    1    1    1    1    1    1
    B3u |   1   -1   -1    1   -1    1    1   -1
    B2u |   1   -1    1   -1   -1    1   -1    1
    B1g |   1    1   -1   -1    1    1   -1   -1
    B1u |   1    1   -1   -1   -1   -1    1    1
    B2g |   1   -1    1   -1    1   -1    1   -1
    B3g |   1   -1   -1    1    1   -1   -1    1
    Au  |   1    1    1    1   -1   -1   -1   -1

   * Direct product table

        | Ag   B3u  B2u  B1g  B1u  B2g  B3g  Au 
   -----+----------------------------------------
    Ag  | Ag   B3u  B2u  B1g  B1u  B2g  B3g  Au 
    B3u | B3u  Ag   B1g  B2u  B2g  B1u  Au   B3g
    B2u | B2u  B1g  Ag   B3u  B3g  Au   B1u  B2g
    B1g | B1g  B2u  B3u  Ag   Au   B3g  B2g  B1u
    B1u | B1u  B2g  B3g  Au   Ag   B3u  B2u  B1g
    B2g | B2g  B1u  Au   B3g  B3u  Ag   B1g  B2u
    B3g | B3g  Au   B1u  B2g  B2u  B1g  Ag   B3u
    Au  | Au   B3g  B2g  B1u  B1g  B2u  B3u  Ag 


                                 Isotopic Masses
                                 ---------------

                           Mg_a       23.985045

                       Total mass:    23.985045 amu
                       Natural abundance:  78.990 %

 Center-of-mass coordinates (a.u.):    0.000000    0.000000    0.000000
 Center-of-mass coordinates (Angs):    0.000000    0.000000    0.000000


  Atoms and basis sets
  --------------------

  Number of atom types :    1
  Total number of atoms:    1

  Basis set used is "aug-cc-pCVQZ" from the basis set library.

  label    atoms   charge   prim   cont     basis
  ----------------------------------------------------------------------
  Mg          1   12.0000   165   134      [20s16p7d5f3g|10s9p7d5f3g]                         
  ----------------------------------------------------------------------
  total:      1   12.0000   165   134
  ----------------------------------------------------------------------
  Spherical harmonic basis used.

  Threshold for neglecting AO integrals:  1.00D-12


  Cartesian Coordinates (a.u.)
  ----------------------------

  Total number of coordinates:    3
  Mg_a    :     1  x   0.0000000000    2  y   0.0000000000    3  z   0.0000000000


  Symmetry Coordinates
  --------------------

  Number of coordinates in each symmetry:     0    1    1    0    1    0    0    0

  Symmetry  B3u ( 2)

    1   Mg_a  x    1

  Symmetry  B2u ( 3)

    2   Mg_a  y    2

  Symmetry  B1u ( 5)

    3   Mg_a  z    3


@ This is an atomic calculation.


  Symmetry Orbitals
  -----------------

  Number of orbitals in each symmetry:          33   19   19   13   19   13   13    5


  Symmetry  Ag ( 1)

    1     Mg_a     1s         1
    2     Mg_a     1s         2
    3     Mg_a     1s         3
    4     Mg_a     1s         4
    5     Mg_a     1s         5
    6     Mg_a     1s         6
    7     Mg_a     1s         7
    8     Mg_a     1s         8
    9     Mg_a     1s         9
   10     Mg_a     1s        10
   11     Mg_a     3d0       40
   12     Mg_a     3d2+      42
   13     Mg_a     3d0       45
   14     Mg_a     3d2+      47
   15     Mg_a     3d0       50
   16     Mg_a     3d2+      52
   17     Mg_a     3d0       55
   18     Mg_a     3d2+      57
   19     Mg_a     3d0       60
   20     Mg_a     3d2+      62
   21     Mg_a     3d0       65
   22     Mg_a     3d2+      67
   23     Mg_a     3d0       70
   24     Mg_a     3d2+      72
   25     Mg_a     5g0      112
   26     Mg_a     5g2+     114
   27     Mg_a     5g4+     116
   28     Mg_a     5g0      121
   29     Mg_a     5g2+     123
   30     Mg_a     5g4+     125
   31     Mg_a     5g0      130
   32     Mg_a     5g2+     132
   33     Mg_a     5g4+     134


  Symmetry  B3u( 2)

   34     Mg_a     2px       11
   35     Mg_a     2px       14
   36     Mg_a     2px       17
   37     Mg_a     2px       20
   38     Mg_a     2px       23
   39     Mg_a     2px       26
   40     Mg_a     2px       29
   41     Mg_a     2px       32
   42     Mg_a     2px       35
   43     Mg_a     4f1+      77
   44     Mg_a     4f3+      79
   45     Mg_a     4f1+      84
   46     Mg_a     4f3+      86
   47     Mg_a     4f1+      91
   48     Mg_a     4f3+      93
   49     Mg_a     4f1+      98
   50     Mg_a     4f3+     100
   51     Mg_a     4f1+     105
   52     Mg_a     4f3+     107


  Symmetry  B2u( 3)

   53     Mg_a     2py       12
   54     Mg_a     2py       15
   55     Mg_a     2py       18
   56     Mg_a     2py       21
   57     Mg_a     2py       24
   58     Mg_a     2py       27
   59     Mg_a     2py       30
   60     Mg_a     2py       33
   61     Mg_a     2py       36
   62     Mg_a     4f3-      73
   63     Mg_a     4f1-      75
   64     Mg_a     4f3-      80
   65     Mg_a     4f1-      82
   66     Mg_a     4f3-      87
   67     Mg_a     4f1-      89
   68     Mg_a     4f3-      94
   69     Mg_a     4f1-      96
   70     Mg_a     4f3-     101
   71     Mg_a     4f1-     103


  Symmetry  B1g( 4)

   72     Mg_a     3d2-      38
   73     Mg_a     3d2-      43
   74     Mg_a     3d2-      48
   75     Mg_a     3d2-      53
   76     Mg_a     3d2-      58
   77     Mg_a     3d2-      63
   78     Mg_a     3d2-      68
   79     Mg_a     5g4-     108
   80     Mg_a     5g2-     110
   81     Mg_a     5g4-     117
   82     Mg_a     5g2-     119
   83     Mg_a     5g4-     126
   84     Mg_a     5g2-     128


  Symmetry  B1u( 5)

   85     Mg_a     2pz       13
   86     Mg_a     2pz       16
   87     Mg_a     2pz       19
   88     Mg_a     2pz       22
   89     Mg_a     2pz       25
   90     Mg_a     2pz       28
   91     Mg_a     2pz       31
   92     Mg_a     2pz       34
   93     Mg_a     2pz       37
   94     Mg_a     4f0       76
   95     Mg_a     4f2+      78
   96     Mg_a     4f0       83
   97     Mg_a     4f2+      85
   98     Mg_a     4f0       90
   99     Mg_a     4f2+      92
  100     Mg_a     4f0       97
  101     Mg_a     4f2+      99
  102     Mg_a     4f0      104
  103     Mg_a     4f2+     106


  Symmetry  B2g( 6)

  104     Mg_a     3d1+      41
  105     Mg_a     3d1+      46
  106     Mg_a     3d1+      51
  107     Mg_a     3d1+      56
  108     Mg_a     3d1+      61
  109     Mg_a     3d1+      66
  110     Mg_a     3d1+      71
  111     Mg_a     5g1+     113
  112     Mg_a     5g3+     115
  113     Mg_a     5g1+     122
  114     Mg_a     5g3+     124
  115     Mg_a     5g1+     131
  116     Mg_a     5g3+     133


  Symmetry  B3g( 7)

  117     Mg_a     3d1-      39
  118     Mg_a     3d1-      44
  119     Mg_a     3d1-      49
  120     Mg_a     3d1-      54
  121     Mg_a     3d1-      59
  122     Mg_a     3d1-      64
  123     Mg_a     3d1-      69
  124     Mg_a     5g3-     109
  125     Mg_a     5g1-     111
  126     Mg_a     5g3-     118
  127     Mg_a     5g1-     120
  128     Mg_a     5g3-     127
  129     Mg_a     5g1-     129


  Symmetry  Au ( 8)

  130     Mg_a     4f2-      74
  131     Mg_a     4f2-      81
  132     Mg_a     4f2-      88
  133     Mg_a     4f2-      95
  134     Mg_a     4f2-     102

  Symmetries of electric field:  B3u(2)  B2u(3)  B1u(5)

  Symmetries of magnetic field:  B3g(7)  B2g(6)  B1g(4)


                     .---------------------------------------.
                     | Starting in Integral Section (HERMIT) |
                     `---------------------------------------'



 ***************************************************************************************
 ****************** Output from **INTEGRALS input processing (HERMIT) ******************
 ***************************************************************************************


 - Using defaults, no **INTEGRALS input found

 Default print level:        1

 Calculation of one-electron Hamiltonian integrals.

 Center of mass  (bohr):      0.000000000000      0.000000000000      0.000000000000
 Operator center (bohr):      0.000000000000      0.000000000000      0.000000000000
 Gauge origin    (bohr):      0.000000000000      0.000000000000      0.000000000000
 Dipole origin   (bohr):      0.000000000000      0.000000000000      0.000000000000


     ************************************************************************
     ************************** Output from HERINT **************************
     ************************************************************************



                      Nuclear contribution to dipole moments
                      --------------------------------------

                    All dipole components are zero by symmetry


  Time used in GABGEN     is       0.34 seconds
  Total CPU  time used in HERMIT:   0.46 seconds
  Total wall time used in HERMIT:   0.47 seconds


                        .----------------------------------.
                        | End of Integral Section (HERMIT) |
                        `----------------------------------'



                   .--------------------------------------------.
                   | Starting in Wave Function Section (SIRIUS) |
                   `--------------------------------------------'


 *** Output from Huckel module :

     Using EWMO model:          T
     Using EHT  model:          F
     Number of Huckel orbitals each symmetry:    3    2    2    0    2    0    0    0

 EWMO - Energy Weighted Maximum Overlap - is a Huckel type method,
        which normally is better than Extended Huckel Theory.
 Reference: Linderberg and Ohrn, Propagators in Quantum Chemistry (Wiley, 1973)

 Huckel EWMO eigenvalues for symmetry :  1
          -49.031700      -3.767700      -0.253100

 Huckel EWMO eigenvalues for symmetry :  2
           -2.282200      -0.157000

 Huckel EWMO eigenvalues for symmetry :  3
           -2.282200      -0.157000

 Huckel EWMO eigenvalues for symmetry :  5
           -2.282200      -0.157000

 **********************************************************************
 *SIRIUS* a direct, restricted step, second order MCSCF program       *
 **********************************************************************

 
     Date and time (Linux)  : Wed Jan 11 14:15:00 2023
     Host name              : cn020                                   

 Title lines from ".mol" input file:
     blah                                                                    
     blah                                                                    

 Print level on unit LUPRI =   2 is   0
 Print level on unit LUW4  =   2 is   5

@    Restricted, closed shell Hartree-Fock calculation.

@    Time-dependent Hartree-Fock calculation (random phase approximation).
 Fock matrices are calculated directly and in parallel without use of integrals on disk.

 Initial molecular orbitals are obtained according to
 ".MOSTART EWMO  " input option

     Wave function specification
     ============================
@    Wave function type        --- HF ---
@    Number of closed shell electrons          12
@    Number of electrons in active shells       0
@    Total charge of the molecule               0

@    Spin multiplicity and 2 M_S                1         0
@    Total number of symmetries                 8 (point group: D2h)
@    Reference state symmetry                   1 (irrep name : Ag )

     Orbital specifications
     ======================
@    Abelian symmetry species          All |    1    2    3    4    5    6    7    8
@                                          |  Ag   B3u  B2u  B1g  B1u  B2g  B3g  Au 
                                       --- |  ---  ---  ---  ---  ---  ---  ---  ---
@    Total number of orbitals          134 |   33   19   19   13   19   13   13    5
@    Number of basis functions         134 |   33   19   19   13   19   13   13    5

      ** Automatic occupation of RHF orbitals **

      -- Initial occupation of symmetries is determined from extended Huckel guess.           
      -- Initial occupation of symmetries is :
@    Occupied SCF orbitals               6 |    3    1    1    0    1    0    0    0

     Maximum number of Fock   iterations      0
     Maximum number of DIIS   iterations     60
     Maximum number of QC-SCF iterations     60
     Threshold for SCF convergence     1.00D-05


 ***********************************************
 ***** DIIS acceleration of SCF iterations *****
 ***********************************************

 C1-DIIS algorithm; max error vectors =    8

 Automatic occupation of symmetries with  12 electrons.

 Iter     Total energy    Error norm  Delta(E)    SCF occupation
 -----------------------------------------------------------------------------
   1  Screening settings (-IFTHRS, JTDIIS, DIFDEN, times)   -7    1    T  1.25D-01  1.25D-01
@  1  -199.612256983       3.02D-01  -2.00D+02     3   1   1   0   1   0   0   0
      Virial theorem: -V/T =      1.999291
@    MULPOP   Mg_a   -0.00; 
   1  Level shift: doubly occupied orbital energies shifted by -2.00D-01
 -----------------------------------------------------------------------------
   2  Screening settings (-IFTHRS, JTDIIS, DIFDEN, times)   -7    2    T  1.00D-01  1.00D-01
@  2  -199.613809449       3.72D-02  -1.55D-03     3   1   1   0   1   0   0   0
      Virial theorem: -V/T =      1.999993
@    MULPOP   Mg_a   -0.00; 
   2  Level shift: doubly occupied orbital energies shifted by -5.00D-02
 -----------------------------------------------------------------------------
   3  Screening settings (-IFTHRS, JTDIIS, DIFDEN, times)  -11    3    F  9.87D-02  9.90D-02
@  3  -199.614166716       1.24D-02  -3.57D-04     3   1   1   0   1   0   0   0
      Virial theorem: -V/T =      1.999916
@    MULPOP   Mg_a   -0.00; 
   3  Level shift: doubly occupied orbital energies shifted by -2.50D-02
 -----------------------------------------------------------------------------
   4  Screening settings (-IFTHRS, JTDIIS, DIFDEN, times)  -11    4    T  8.57D-02  8.60D-02
@  4  -199.614227214       4.17D-03  -6.05D-05     3   1   1   0   1   0   0   0
      Virial theorem: -V/T =      2.000010
@    MULPOP   Mg_a   -0.00; 
   4  Level shift: doubly occupied orbital energies shifted by -1.25D-02
 -----------------------------------------------------------------------------
   5  Screening settings (-IFTHRS, JTDIIS, DIFDEN, times)  -11    5    T  8.61D-02  8.60D-02
@  5  -199.614233945       7.40D-04  -6.73D-06     3   1   1   0   1   0   0   0
      Virial theorem: -V/T =      2.000000
@    MULPOP   Mg_a    0.00; 
 -----------------------------------------------------------------------------
   6  Screening settings (-IFTHRS, JTDIIS, DIFDEN, times)  -11    6    T  8.52D-02  8.60D-02
@  6  -199.614234127       1.08D-04  -1.82D-07     3   1   1   0   1   0   0   0
      Virial theorem: -V/T =      2.000006
@    MULPOP   Mg_a    0.00; 
 -----------------------------------------------------------------------------
   7  Screening settings (-IFTHRS, JTDIIS, DIFDEN, times)  -11    7    T  8.47D-02  8.50D-02
@  7  -199.614234131       9.03D-06  -4.19D-09     3   1   1   0   1   0   0   0

@ *** DIIS converged in   7 iterations !
@     Converged SCF energy, gradient:   -199.614234130983    9.03D-06
    - total time used in SIRFCK :              0.00 seconds


 *** SCF orbital energy analysis ***

 Only the 20 lowest virtual orbital energies printed in each symmetry.

 Number of electrons :   12
 Orbital occupations :    3    1    1    0    1    0    0    0

 Sym       Hartree-Fock orbital energies

1 Ag    -49.03182050    -3.76775626    -0.25305330     0.02624772     0.11161423
          0.11161423     0.14389284     0.33133402     0.33133402     0.51629512
          0.72487886     0.72487886     0.72487886     0.78166623     0.78166623
          1.60452477     1.60452477     1.87747574     1.87747574     1.87747574
          2.69442727     4.50778415     4.50778415

2 B3u    -2.28223227     0.01319933     0.04197671     0.13344885     0.28043803
          0.28043803     0.38961254     0.81234516     0.81234516     1.07114540
          1.90152729     1.90152729     5.05716358     9.85693041     9.85693041
         22.91119388    32.91908322    32.91908322    91.25060733

3 B2u    -2.28223227     0.01319933     0.04197671     0.13344885     0.28043803
          0.28043803     0.38961254     0.81234516     0.81234516     1.07114540
          1.90152729     1.90152729     5.05716358     9.85693041     9.85693041
         22.91119388    32.91908322    32.91908322    91.25060733

4 B1g     0.11161423     0.33133402     0.72487886     0.72487886     0.78166623
          1.60452477     1.87747574     1.87747574     4.50778415    14.12178890
         25.47435693    25.47435693    42.16091716

5 B1u    -2.28223227     0.01319933     0.04197671     0.13344885     0.28043803
          0.28043803     0.38961254     0.81234516     0.81234516     1.07114540
          1.90152729     1.90152729     5.05716358     9.85693041     9.85693041
         22.91119388    32.91908322    32.91908322    91.25060733

6 B2g     0.11161423     0.33133402     0.72487886     0.72487886     0.78166623
          1.60452477     1.87747574     1.87747574     4.50778415    14.12178890
         25.47435693    25.47435693    42.16091716

7 B3g     0.11161423     0.33133402     0.72487886     0.72487886     0.78166623
          1.60452477     1.87747574     1.87747574     4.50778415    14.12178890
         25.47435693    25.47435693    42.16091716

8 Au      0.28043803     0.81234516     1.90152729     9.85693041    32.91908322


    E(LUMO) :     0.01319933 au (symmetry 2)
  - E(HOMO) :    -0.25305330 au (symmetry 1)
  ------------------------------------------
    gap     :     0.26625263 au

 --- Writing SIRIFC interface file

 CPU and wall time for SCF :       0.677       0.680


                       .-----------------------------------.
                       | --- Final results from SIRIUS --- |
                       `-----------------------------------'


@    Spin multiplicity:           1
@    Spatial symmetry:            1 ( irrep  Ag  in D2h )
@    Total charge of molecule:    0

@    Final HF energy:            -199.614234130983                 
@    Nuclear repulsion:             0.000000000000
@    Electronic energy:          -199.614234130983

@    Final gradient norm:           0.000009031830

 
     Date and time (Linux)  : Wed Jan 11 14:15:01 2023
     Host name              : cn020                                   

File label for MO orbitals:  11Jan23   FOCKDIIS

 (Only coefficients > 0.0100 are printed.)

 Molecular orbitals for symmetry species 1  (Ag )
 ------------------------------------------------

    Orbital         1        2        3        4        5        6        7
   1 Mg_a:1s     1.0000  -0.0002  -0.0001   0.0168   0.0000  -0.0000   0.0600
   2 Mg_a:1s     0.0001  -0.9960  -0.0006   0.1341   0.0000  -0.0000   0.4606
   3 Mg_a:1s     0.0000  -0.0012   0.3728   0.2285   0.0000  -0.0000   0.2810
   4 Mg_a:1s    -0.0005  -0.0166   0.3233   0.3443  -0.0000   0.0000   0.9164
   5 Mg_a:1s     0.0005   0.0104   0.5553  -0.7596   0.0000  -0.0000  -4.3594
   6 Mg_a:1s    -0.0002  -0.0043   0.2569   2.0834  -0.0000   0.0000   5.2413
   7 Mg_a:1s    -0.0000  -0.0000  -0.0000   0.0042  -0.0000  -0.0000   0.0149
   8 Mg_a:1s     0.0000  -0.0001  -0.0000   0.0035  -0.0000  -0.0000   0.0127
   9 Mg_a:1s    -0.0000   0.0003   0.0001  -0.0175   0.0000   0.0000  -0.0632
  10 Mg_a:1s     0.0001   0.0010   0.0021  -2.1505   0.0000  -0.0000  -1.9424
  17 Mg_a:3d0   -0.0000  -0.0000   0.0000  -0.0000  -0.0817  -0.0000   0.0000
  18 Mg_a:3d2+   0.0000   0.0000   0.0000   0.0000  -0.0000  -0.0817  -0.0000
  19 Mg_a:3d0    0.0000   0.0000  -0.0000   0.0000   0.3266   0.0000  -0.0000
  20 Mg_a:3d2+  -0.0000  -0.0000  -0.0000  -0.0000   0.0000   0.3266   0.0000
  21 Mg_a:3d0   -0.0000  -0.0000   0.0000  -0.0000  -0.4721   0.0000   0.0000
  22 Mg_a:3d2+   0.0000   0.0000   0.0000   0.0000  -0.0000  -0.4721  -0.0000
  23 Mg_a:3d0    0.0000   0.0000   0.0000   0.0000   1.1893  -0.0000  -0.0000
  24 Mg_a:3d2+  -0.0000  -0.0000  -0.0000  -0.0000   0.0000   1.1893   0.0000

    Orbital         8        9       10       11       12       13
   1 Mg_a:1s    -0.0000   0.0000  -0.2228  -0.0000  -0.0000   0.0000
   2 Mg_a:1s     0.0000  -0.0000  -1.8587  -0.0000   0.0000   0.0000
   3 Mg_a:1s    -0.0000  -0.0000  -2.5515  -0.0000   0.0000   0.0000
   4 Mg_a:1s     0.0000   0.0000  -5.0553   0.0000   0.0000  -0.0000
   5 Mg_a:1s    -0.0000  -0.0000   7.4295  -0.0000  -0.0000   0.0000
   6 Mg_a:1s     0.0000  -0.0000  -4.3022   0.0000   0.0000  -0.0000
   7 Mg_a:1s    -0.0000   0.0000  -0.0557  -0.0000  -0.0000   0.0000
   8 Mg_a:1s    -0.0000   0.0000  -0.0434  -0.0000  -0.0000   0.0000
   9 Mg_a:1s     0.0000  -0.0000   0.2218  -0.0000   0.0000   0.0000
  10 Mg_a:1s    -0.0000   0.0000   1.1199  -0.0000  -0.0000   0.0000
  17 Mg_a:3d0    0.0000   0.3554  -0.0000  -0.0000   0.0000   0.0000
  18 Mg_a:3d2+   0.3554  -0.0000  -0.0000   0.0000   0.0000  -0.0000
  19 Mg_a:3d0    0.0000  -0.9669   0.0000   0.0000  -0.0000  -0.0000
  20 Mg_a:3d2+  -0.9669   0.0000   0.0000  -0.0000  -0.0000   0.0000
  21 Mg_a:3d0   -0.0000   2.0325  -0.0000  -0.0000   0.0000   0.0000
  22 Mg_a:3d2+   2.0325   0.0000  -0.0000   0.0000  -0.0000  -0.0000
  23 Mg_a:3d0   -0.0000  -0.8751  -0.0000   0.0000  -0.0000  -0.0000
  24 Mg_a:3d2+  -0.8751  -0.0000   0.0000  -0.0000   0.0000   0.0000
  28 Mg_a:5g0    0.0000  -0.0000  -0.0000  -0.2842  -0.0000   0.0000
  29 Mg_a:5g2+  -0.0000  -0.0000   0.0000  -0.0000  -0.2842   0.0000
  30 Mg_a:5g4+   0.0000  -0.0000  -0.0000   0.0000  -0.0000   0.2842
  31 Mg_a:5g0   -0.0000   0.0000   0.0000   1.1778   0.0000  -0.0000
  32 Mg_a:5g2+   0.0000   0.0000  -0.0000   0.0000   1.1778  -0.0000
  33 Mg_a:5g4+  -0.0000   0.0000   0.0000  -0.0000   0.0000  -1.1778

 Molecular orbitals for symmetry species 2  (B3u)
 ------------------------------------------------

    Orbital         1        2        3        4        5        6        7
   1 Mg_a:2px    0.9985   0.0204   0.1103  -0.3034  -0.0000   0.0000   1.0274
   2 Mg_a:2px   -0.0001   0.0522   0.0276  -0.4119   0.0000   0.0000   0.7933
   3 Mg_a:2px    0.0072  -0.0103  -0.3273   0.5219  -0.0000  -0.0000  -3.0086
   4 Mg_a:2px   -0.0017   0.2273   0.3008  -2.3792   0.0000   0.0000   3.5713
   5 Mg_a:2px    0.0006  -0.1743  -1.3987   2.2816  -0.0000  -0.0000  -1.7192
   8 Mg_a:2px   -0.0001   0.0008   0.0014  -0.0056   0.0000  -0.0000   0.0130
   9 Mg_a:2px   -0.0001   1.0297   0.9083  -0.6420   0.0000   0.0000   0.3621
  14 Mg_a:4f1+  -0.0000   0.0000  -0.0000  -0.0000  -0.0000   0.1099   0.0000
  15 Mg_a:4f3+  -0.0000   0.0000  -0.0000   0.0000   0.1099   0.0000  -0.0000
  16 Mg_a:4f1+   0.0000  -0.0000   0.0000   0.0000   0.0000  -0.3125  -0.0000
  17 Mg_a:4f3+   0.0000  -0.0000   0.0000   0.0000  -0.3125  -0.0000  -0.0000
  18 Mg_a:4f1+   0.0000   0.0000  -0.0000   0.0000   0.0000   1.1482   0.0000
  19 Mg_a:4f3+  -0.0000   0.0000  -0.0000  -0.0000   1.1482   0.0000  -0.0000

    Orbital         8        9       10       11
   1 Mg_a:2px   -0.0000  -0.0000   4.7248  -0.0000
   2 Mg_a:2px   -0.0000  -0.0000   4.8387  -0.0000
   3 Mg_a:2px    0.0000   0.0000  -4.0117   0.0000
   4 Mg_a:2px   -0.0000  -0.0000   2.5885  -0.0000
   5 Mg_a:2px    0.0000   0.0000  -1.0011   0.0000
   6 Mg_a:2px    0.0000   0.0000  -0.0102   0.0000
   7 Mg_a:2px    0.0000   0.0000  -0.0347   0.0000
   9 Mg_a:2px   -0.0000  -0.0000   0.2012  -0.0000
  14 Mg_a:4f1+   0.3348  -0.0000   0.0000   1.7070
  15 Mg_a:4f3+  -0.0000   0.3348   0.0000  -0.0000
  16 Mg_a:4f1+  -1.5526   0.0000  -0.0000  -1.4296
  17 Mg_a:4f3+   0.0000  -1.5526  -0.0000   0.0000
  18 Mg_a:4f1+   0.6950   0.0000   0.0000   0.4084
  19 Mg_a:4f3+  -0.0000   0.6950   0.0000  -0.0000

 Molecular orbitals for symmetry species 3  (B2u)
 ------------------------------------------------

    Orbital         1        2        3        4        5        6        7
   1 Mg_a:2py    0.9985   0.0204   0.1103  -0.3034  -0.0000  -0.0000   1.0274
   2 Mg_a:2py   -0.0001   0.0522   0.0276  -0.4119  -0.0000  -0.0000   0.7933
   3 Mg_a:2py    0.0072  -0.0103  -0.3273   0.5219   0.0000   0.0000  -3.0086
   4 Mg_a:2py   -0.0017   0.2273   0.3008  -2.3792  -0.0000   0.0000   3.5713
   5 Mg_a:2py    0.0006  -0.1743  -1.3987   2.2816   0.0000   0.0000  -1.7192
   8 Mg_a:2py   -0.0001   0.0008   0.0014  -0.0056  -0.0000   0.0000   0.0130
   9 Mg_a:2py   -0.0001   1.0297   0.9083  -0.6420  -0.0000  -0.0000   0.3621
  14 Mg_a:4f3-   0.0000  -0.0000   0.0000  -0.0000   0.1099  -0.0000  -0.0000
  15 Mg_a:4f1-  -0.0000  -0.0000   0.0000   0.0000  -0.0000   0.1099   0.0000
  16 Mg_a:4f3-  -0.0000   0.0000  -0.0000   0.0000  -0.3125   0.0000   0.0000
  17 Mg_a:4f1-   0.0000   0.0000  -0.0000  -0.0000   0.0000  -0.3125  -0.0000
  18 Mg_a:4f3-   0.0000  -0.0000   0.0000  -0.0000   1.1482  -0.0000  -0.0000
  19 Mg_a:4f1-  -0.0000  -0.0000   0.0000   0.0000  -0.0000   1.1482  -0.0000

    Orbital         8        9       10       11
   1 Mg_a:2py    0.0000   0.0000   4.7248   0.0000
   2 Mg_a:2py    0.0000   0.0000   4.8387  -0.0000
   3 Mg_a:2py   -0.0000  -0.0000  -4.0117   0.0000
   4 Mg_a:2py   -0.0000   0.0000   2.5885   0.0000
   5 Mg_a:2py    0.0000  -0.0000  -1.0011  -0.0000
   6 Mg_a:2py    0.0000   0.0000  -0.0102  -0.0000
   7 Mg_a:2py    0.0000   0.0000  -0.0347  -0.0000
   9 Mg_a:2py   -0.0000   0.0000   0.2012   0.0000
  14 Mg_a:4f3-  -0.0000   0.3348   0.0000   0.0000
  15 Mg_a:4f1-   0.3348   0.0000  -0.0000   1.7070
  16 Mg_a:4f3-   0.0000  -1.5526  -0.0000  -0.0000
  17 Mg_a:4f1-  -1.5526  -0.0000   0.0000  -1.4296
  18 Mg_a:4f3-  -0.0000   0.6950   0.0000   0.0000
  19 Mg_a:4f1-   0.6950   0.0000   0.0000   0.4084

 Molecular orbitals for symmetry species 4  (B1g)
 ------------------------------------------------

    Orbital         1        2        3        4        5        6        7
   2 Mg_a:3d2-  -0.0018   0.0068   0.0000   0.0000   0.0090   0.0332   0.0000
   3 Mg_a:3d2-   0.0083  -0.0014   0.0000   0.0000  -0.0812   0.0582   0.0000
   4 Mg_a:3d2-  -0.0817   0.3554   0.0000   0.0000   0.4456   2.6615   0.0000
   5 Mg_a:3d2-   0.3266  -0.9669   0.0000   0.0000  -2.8186  -3.9536   0.0000
   6 Mg_a:3d2-  -0.4721   2.0325   0.0000   0.0000   2.4324   2.0973   0.0000
   7 Mg_a:3d2-   1.1893  -0.8751   0.0000   0.0000  -0.5908  -0.3956   0.0000
  10 Mg_a:5g4-   0.0000   0.0000   0.0000  -0.2842   0.0000   0.0000   0.0000
  11 Mg_a:5g2-   0.0000   0.0000   0.2842   0.0000   0.0000   0.0000   1.3691
  12 Mg_a:5g4-   0.0000   0.0000   0.0000   1.1778   0.0000   0.0000   0.0000
  13 Mg_a:5g2-   0.0000   0.0000  -1.1778   0.0000   0.0000   0.0000  -0.7537

    Orbital         8        9       10
   1 Mg_a:3d2-   0.0000   0.0620   0.0760
   2 Mg_a:3d2-   0.0000  -0.0952  -1.4713
   3 Mg_a:3d2-   0.0000   1.2143   1.1192
   4 Mg_a:3d2-   0.0000  -1.6924  -0.7773
   5 Mg_a:3d2-   0.0000   1.9477   0.8642
   6 Mg_a:3d2-   0.0000  -0.9483  -0.4237
   7 Mg_a:3d2-   0.0000   0.1810   0.0833
  10 Mg_a:5g4-   1.3691   0.0000   0.0000
  12 Mg_a:5g4-  -0.7537   0.0000   0.0000

 Molecular orbitals for symmetry species 5  (B1u)
 ------------------------------------------------

    Orbital         1        2        3        4        5        6        7
   1 Mg_a:2pz    0.9985   0.0204   0.1103  -0.3034   0.0000   0.0000   1.0274
   2 Mg_a:2pz   -0.0001   0.0522   0.0276  -0.4119   0.0000   0.0000   0.7933
   3 Mg_a:2pz    0.0072  -0.0103  -0.3273   0.5219  -0.0000  -0.0000  -3.0086
   4 Mg_a:2pz   -0.0017   0.2273   0.3008  -2.3792   0.0000   0.0000   3.5713
   5 Mg_a:2pz    0.0006  -0.1743  -1.3987   2.2816  -0.0000  -0.0000  -1.7192
   8 Mg_a:2pz   -0.0001   0.0008   0.0014  -0.0056  -0.0000  -0.0000   0.0130
   9 Mg_a:2pz   -0.0001   1.0297   0.9083  -0.6420   0.0000   0.0000   0.3621
  14 Mg_a:4f0   -0.0000  -0.0000   0.0000   0.0000  -0.0000   0.1099   0.0000
  15 Mg_a:4f2+  -0.0000   0.0000  -0.0000  -0.0000   0.1099   0.0000   0.0000
  16 Mg_a:4f0    0.0000  -0.0000   0.0000  -0.0000   0.0000  -0.3125  -0.0000
  17 Mg_a:4f2+  -0.0000  -0.0000   0.0000  -0.0000  -0.3125   0.0000  -0.0000
  18 Mg_a:4f0   -0.0000   0.0000  -0.0000   0.0000  -0.0000   1.1482   0.0000
  19 Mg_a:4f2+   0.0000  -0.0000   0.0000   0.0000   1.1482  -0.0000   0.0000

    Orbital         8        9       10       11
   1 Mg_a:2pz    0.0000  -0.0000   4.7248  -0.0000
   2 Mg_a:2pz   -0.0000  -0.0000   4.8387   0.0000
   3 Mg_a:2pz    0.0000   0.0000  -4.0117  -0.0000
   4 Mg_a:2pz   -0.0000  -0.0000   2.5885  -0.0000
   5 Mg_a:2pz    0.0000   0.0000  -1.0011   0.0000
   6 Mg_a:2pz   -0.0000   0.0000  -0.0102   0.0000
   7 Mg_a:2pz   -0.0000   0.0000  -0.0347   0.0000
   9 Mg_a:2pz    0.0000  -0.0000   0.2012  -0.0000
  14 Mg_a:4f0   -0.0000   0.3348   0.0000   0.0000
  15 Mg_a:4f2+   0.3348  -0.0000   0.0000   1.7070
  16 Mg_a:4f0    0.0000  -1.5526  -0.0000   0.0000
  17 Mg_a:4f2+  -1.5526  -0.0000   0.0000  -1.4296
  18 Mg_a:4f0   -0.0000   0.6950   0.0000   0.0000
  19 Mg_a:4f2+   0.6950   0.0000  -0.0000   0.4084

 Molecular orbitals for symmetry species 6  (B2g)
 ------------------------------------------------

    Orbital         1        2        3        4        5        6        7
   2 Mg_a:3d1+  -0.0018   0.0068   0.0000   0.0000   0.0090   0.0332   0.0000
   3 Mg_a:3d1+   0.0083  -0.0014   0.0000   0.0000  -0.0812   0.0582   0.0000
   4 Mg_a:3d1+  -0.0817   0.3554   0.0000   0.0000   0.4456   2.6615   0.0000
   5 Mg_a:3d1+   0.3266  -0.9669   0.0000   0.0000  -2.8186  -3.9536   0.0000
   6 Mg_a:3d1+  -0.4721   2.0325   0.0000   0.0000   2.4324   2.0973   0.0000
   7 Mg_a:3d1+   1.1893  -0.8751   0.0000   0.0000  -0.5908  -0.3956   0.0000
  10 Mg_a:5g1+   0.0000   0.0000   0.0000  -0.2842   0.0000   0.0000   0.0000
  11 Mg_a:5g3+   0.0000   0.0000   0.2842   0.0000   0.0000   0.0000   1.3691
  12 Mg_a:5g1+   0.0000   0.0000   0.0000   1.1778   0.0000   0.0000   0.0000
  13 Mg_a:5g3+   0.0000   0.0000  -1.1778   0.0000   0.0000   0.0000  -0.7537

    Orbital         8        9       10
   1 Mg_a:3d1+   0.0000   0.0620   0.0760
   2 Mg_a:3d1+   0.0000  -0.0952  -1.4713
   3 Mg_a:3d1+   0.0000   1.2143   1.1192
   4 Mg_a:3d1+   0.0000  -1.6924  -0.7773
   5 Mg_a:3d1+   0.0000   1.9477   0.8642
   6 Mg_a:3d1+   0.0000  -0.9483  -0.4237
   7 Mg_a:3d1+   0.0000   0.1810   0.0833
  10 Mg_a:5g1+   1.3691   0.0000   0.0000
  12 Mg_a:5g1+  -0.7537   0.0000   0.0000

 Molecular orbitals for symmetry species 7  (B3g)
 ------------------------------------------------

    Orbital         1        2        3        4        5        6        7
   2 Mg_a:3d1-  -0.0018   0.0068   0.0000   0.0000   0.0090   0.0332   0.0000
   3 Mg_a:3d1-   0.0083  -0.0014   0.0000   0.0000  -0.0812   0.0582   0.0000
   4 Mg_a:3d1-  -0.0817   0.3554   0.0000   0.0000   0.4456   2.6615   0.0000
   5 Mg_a:3d1-   0.3266  -0.9669   0.0000   0.0000  -2.8186  -3.9536   0.0000
   6 Mg_a:3d1-  -0.4721   2.0325   0.0000   0.0000   2.4324   2.0973   0.0000
   7 Mg_a:3d1-   1.1893  -0.8751   0.0000   0.0000  -0.5908  -0.3956   0.0000
  10 Mg_a:5g3-   0.0000   0.0000  -0.2842   0.0000   0.0000   0.0000   1.3691
  11 Mg_a:5g1-   0.0000   0.0000   0.0000  -0.2842   0.0000   0.0000   0.0000
  12 Mg_a:5g3-   0.0000   0.0000   1.1778   0.0000   0.0000   0.0000  -0.7537
  13 Mg_a:5g1-   0.0000   0.0000   0.0000   1.1778   0.0000   0.0000   0.0000

    Orbital         8        9       10
   1 Mg_a:3d1-   0.0000   0.0620   0.0760
   2 Mg_a:3d1-   0.0000  -0.0952  -1.4713
   3 Mg_a:3d1-   0.0000   1.2143   1.1192
   4 Mg_a:3d1-   0.0000  -1.6924  -0.7773
   5 Mg_a:3d1-   0.0000   1.9477   0.8642
   6 Mg_a:3d1-   0.0000  -0.9483  -0.4237
   7 Mg_a:3d1-   0.0000   0.1810   0.0833
  11 Mg_a:5g1-   1.3691   0.0000   0.0000
  13 Mg_a:5g1-  -0.7537   0.0000   0.0000

 Molecular orbitals for symmetry species 8  (Au )
 ------------------------------------------------

    Orbital         1        2        3        4        5
   1 Mg_a:4f2-   0.0005   0.0017   0.0020   0.1135   1.2093
   2 Mg_a:4f2-  -0.0015  -0.0078   0.0039  -1.0759  -0.6013
   3 Mg_a:4f2-   0.1099   0.3348   1.7070   0.3130   0.1197
   4 Mg_a:4f2-  -0.3125  -1.5526  -1.4296  -0.2427  -0.0934
   5 Mg_a:4f2-   1.1482   0.6950   0.4084   0.0736   0.0289

  Total CPU  time used in SIRIUS :   0.69 seconds
  Total wall time used in SIRIUS :   0.69 seconds

 
     Date and time (Linux)  : Wed Jan 11 14:15:01 2023
     Host name              : cn020                                   


                     .---------------------------------------.
                     | End of Wave Function Section (SIRIUS) |
                     `---------------------------------------'



                 .------------------------------------------------.
                 | Starting in Dynamic Property Section (RESPONS) |
                 `------------------------------------------------'


 ----------------------------------------------------------------------------------------
  RESPONSE  -  an MCSCF, MC-srDFT, DFT, SOPPA and SOPPA-srDFT response property program
 ----------------------------------------------------------------------------------------


 -------- OUTPUT FROM RESPONSE INPUT PROCESSING --------




 Linear Response calculation
 ---------------------------

 Print level                                    : IPRLR  =   2
 Maximum number of iterations                   : MAXITL =  60
 Threshold for relative convergence             : THCLR  = 1.000D-03
 Maximum iterations in optimal orbital algorithm: MAXITO =   5

  9 B-frequencies  0.000000D+00  9.319375D-03  1.863875D-02  2.795813D-02  3.727750D-02
  4.659687D-02  5.591625D-02  6.523562D-02  7.455500D-02

    1 second order properties calculated with symmetry no.    2 and labels:

          XDIPLEN 

    1 second order properties calculated with symmetry no.    3 and labels:

          YDIPLEN 

    1 second order properties calculated with symmetry no.    5 and labels:

          ZDIPLEN 


   SCF energy         :     -199.614234130982652
 -- inactive part     :     -199.614234130982652
 -- nuclear repulsion :        0.000000000000000


                     ***************************************
                     *** RHF response calculation (TDHF) ***
                     ***************************************

 ----------------------------------------------------------------
 ----- Linear response calculation
 ----- Symmetry of excitation/property operator(s)    2  ( B3u)
 ----------------------------------------------------------------

 Number of excitations of this symmetry            0
 Number of response properties of this symmetry    1
 Number of C6/C8 properties of this symmetry       0


 Perturbation symmetry.     KSYMOP:           2
 Perturbation spin symmetry.TRPLET:           F
 Orbital variables.         KZWOPT:         110
 Configuration variables.   KZCONF:           0
 Total number of variables. KZVAR :         110


 RSPLR -- linear response calculation for symmetry 2  ( B3u)
 RSPLR -- operator label : XDIPLEN 
 RSPLR -- operator spin  :   0
 RSPLR -- frequencies    :     0.000000  0.009319  0.018639  0.027958  0.037277
                               0.046597  0.055916  0.065236  0.074555



 ---  SOLVING SETS OF LINEAR EQUATIONS FOR LINEAR RESPONSE PROPERTIES ---

 Operator symmetry = 2  ( B3u); triplet =   F

RSPORT:    1 out of    9 new trial vectors linear dependent

 ** RSPCTL MICROITERATION NUMBER    1

       No.  Residual tot.,    conf., and orb.    Bnorm      Frequency 
      ----------------------------------------------------------------
         1    3.62550D-01  0.00D+00  3.63D-01  1.46D+01    0.00000D+00
         2    3.65326D-01  0.00D+00  3.65D-01  1.47D+01    9.31937D-03
         3    3.73760D-01  0.00D+00  3.74D-01  1.50D+01    1.86387D-02
         4    3.88179D-01  0.00D+00  3.88D-01  1.55D+01    2.79581D-02
         5    4.09183D-01  0.00D+00  4.09D-01  1.63D+01    3.72775D-02
         6    4.37737D-01  0.00D+00  4.38D-01  1.74D+01    4.65969D-02
         7    4.75330D-01  0.00D+00  4.75D-01  1.87D+01    5.59163D-02
         8    5.24244D-01  0.00D+00  5.24D-01  2.06D+01    6.52356D-02
         9    5.88033D-01  0.00D+00  5.88D-01  2.30D+01    7.45550D-02

 ** RSPCTL MICROITERATION NUMBER    2

       No.  Residual tot.,    conf., and orb.    Bnorm      Frequency 
      ----------------------------------------------------------------
         1    1.39958D-02  0.00D+00  1.40D-02  1.46D+01    0.00000D+00
         2    1.40718D-02  0.00D+00  1.41D-02  1.47D+01    9.31937D-03
         3    1.43045D-02  0.00D+00  1.43D-02  1.50D+01    1.86387D-02
         4    1.47077D-02  0.00D+00  1.47D-02  1.55D+01    2.79581D-02
         5    1.53064D-02  0.00D+00  1.53D-02  1.63D+01    3.72775D-02
         6    1.61400D-02  0.00D+00  1.61D-02  1.74D+01    4.65969D-02
         7    1.72670D-02  0.00D+00  1.73D-02  1.88D+01    5.59163D-02
         8    1.87751D-02  0.00D+00  1.88D-02  2.06D+01    6.52356D-02
         9    2.07978D-02  0.00D+00  2.08D-02  2.30D+01    7.45550D-02

 *** THE REQUESTED    9 SOLUTION VECTORS CONVERGED

 Convergence of RSP solution vectors, threshold = 1.00D-03
 ---------------------------------------------------------------
 (dimension of paired reduced space:   34)
 RSP solution vector no.    1; norm of residual   9.60D-04
 RSP solution vector no.    2; norm of residual   9.59D-04
 RSP solution vector no.    3; norm of residual   9.55D-04
 RSP solution vector no.    4; norm of residual   9.48D-04
 RSP solution vector no.    5; norm of residual   9.39D-04
 RSP solution vector no.    6; norm of residual   9.30D-04
 RSP solution vector no.    7; norm of residual   9.21D-04
 RSP solution vector no.    8; norm of residual   9.12D-04
 RSP solution vector no.    9; norm of residual   9.05D-04

 *** RSPCTL MICROITERATIONS CONVERGED


           Final output of second order properties from linear response
           ------------------------------------------------------------


@ Spin symmetry of operators: singlet

 Note that minus the linear response function: - << A; B >>(omega) is printed.
 The results are of quadratic accuracy using Sellers formula.

@ FREQUENCY INDEPENDENT SECOND ORDER PROPERTIES

@ -<< XDIPLEN  ; XDIPLEN  >> =  8.158691246950E+01

@ FREQUENCY DEPENDENT SECOND ORDER PROPERTIES WITH FREQUENCY :

@    a.u.:  9.3193750D-03
@    cm-1:  2.0453664D+03
@    eV  :  2.5359309D-01
@  kJ/mol:  2.4468015D+01
@    nm  :  4.8890996D+03

@ -<< XDIPLEN  ; XDIPLEN  >> =  8.189851728026E+01

@ FREQUENCY DEPENDENT SECOND ORDER PROPERTIES WITH FREQUENCY :

@    a.u.:  1.8638750D-02
@    cm-1:  4.0907327D+03
@    eV  :  5.0718619D-01
@  kJ/mol:  4.8936031D+01
@    nm  :  2.4445498D+03

@ -<< XDIPLEN  ; XDIPLEN  >> =  8.284813684825E+01

@ FREQUENCY DEPENDENT SECOND ORDER PROPERTIES WITH FREQUENCY :

@    a.u.:  2.7958125D-02
@    cm-1:  6.1360991D+03
@    eV  :  7.6077928D-01
@  kJ/mol:  7.3404046D+01
@    nm  :  1.6296999D+03

@ -<< XDIPLEN  ; XDIPLEN  >> =  8.448199615553E+01

@ FREQUENCY DEPENDENT SECOND ORDER PROPERTIES WITH FREQUENCY :

@    a.u.:  3.7277500D-02
@    cm-1:  8.1814655D+03
@    eV  :  1.0143724D+00
@  kJ/mol:  9.7872061D+01
@    nm  :  1.2222749D+03

@ -<< XDIPLEN  ; XDIPLEN  >> =  8.688359553850E+01

@ FREQUENCY DEPENDENT SECOND ORDER PROPERTIES WITH FREQUENCY :

@    a.u.:  4.6596875D-02
@    cm-1:  1.0226832D+04
@    eV  :  1.2679655D+00
@  kJ/mol:  1.2234008D+02
@    nm  :  9.7781993D+02

@ -<< XDIPLEN  ; XDIPLEN  >> =  9.018506098409E+01

@ FREQUENCY DEPENDENT SECOND ORDER PROPERTIES WITH FREQUENCY :

@    a.u.:  5.5916250D-02
@    cm-1:  1.2272198D+04
@    eV  :  1.5215586D+00
@  kJ/mol:  1.4680809D+02
@    nm  :  8.1484994D+02

@ -<< XDIPLEN  ; XDIPLEN  >> =  9.458706829449E+01

@ FREQUENCY DEPENDENT SECOND ORDER PROPERTIES WITH FREQUENCY :

@    a.u.:  6.5235625D-02
@    cm-1:  1.4317565D+04
@    eV  :  1.7751517D+00
@  kJ/mol:  1.7127611D+02
@    nm  :  6.9844281D+02

@ -<< XDIPLEN  ; XDIPLEN  >> =  1.003934979126E+02

@ FREQUENCY DEPENDENT SECOND ORDER PROPERTIES WITH FREQUENCY :

@    a.u.:  7.4555000D-02
@    cm-1:  1.6362931D+04
@    eV  :  2.0287447D+00
@  kJ/mol:  1.9574412D+02
@    nm  :  6.1113745D+02

@ -<< XDIPLEN  ; XDIPLEN  >> =  1.080734305428E+02


 Time used in linear response calculation is      0.94 CPU seconds for symmetry 2
 ----------------------------------------------------------------
 ----- Linear response calculation
 ----- Symmetry of excitation/property operator(s)    3  ( B2u)
 ----------------------------------------------------------------

 Number of excitations of this symmetry            0
 Number of response properties of this symmetry    1
 Number of C6/C8 properties of this symmetry       0


 Perturbation symmetry.     KSYMOP:           3
 Perturbation spin symmetry.TRPLET:           F
 Orbital variables.         KZWOPT:         110
 Configuration variables.   KZCONF:           0
 Total number of variables. KZVAR :         110


 RSPLR -- linear response calculation for symmetry 3  ( B2u)
 RSPLR -- operator label : YDIPLEN 
 RSPLR -- operator spin  :   0
 RSPLR -- frequencies    :     0.000000  0.009319  0.018639  0.027958  0.037277
                               0.046597  0.055916  0.065236  0.074555



 ---  SOLVING SETS OF LINEAR EQUATIONS FOR LINEAR RESPONSE PROPERTIES ---

 Operator symmetry = 3  ( B2u); triplet =   F

RSPORT:    1 out of    9 new trial vectors linear dependent

 ** RSPCTL MICROITERATION NUMBER    1

       No.  Residual tot.,    conf., and orb.    Bnorm      Frequency 
      ----------------------------------------------------------------
         1    3.67781D-01  0.00D+00  3.68D-01  1.46D+01    0.00000D+00
         2    3.70537D-01  0.00D+00  3.71D-01  1.47D+01    9.31937D-03
         3    3.78909D-01  0.00D+00  3.79D-01  1.50D+01    1.86387D-02
         4    3.93232D-01  0.00D+00  3.93D-01  1.55D+01    2.79581D-02
         5    4.14114D-01  0.00D+00  4.14D-01  1.63D+01    3.72775D-02
         6    4.42532D-01  0.00D+00  4.43D-01  1.73D+01    4.65969D-02
         7    4.79988D-01  0.00D+00  4.80D-01  1.87D+01    5.59163D-02
         8    5.28783D-01  0.00D+00  5.29D-01  2.06D+01    6.52356D-02
         9    5.92491D-01  0.00D+00  5.92D-01  2.30D+01    7.45550D-02

 ** RSPCTL MICROITERATION NUMBER    2

       No.  Residual tot.,    conf., and orb.    Bnorm      Frequency 
      ----------------------------------------------------------------
         1    1.33012D-02  0.00D+00  1.33D-02  1.46D+01    0.00000D+00
         2    1.33686D-02  0.00D+00  1.34D-02  1.47D+01    9.31937D-03
         3    1.35755D-02  0.00D+00  1.36D-02  1.50D+01    1.86387D-02
         4    1.39371D-02  0.00D+00  1.39D-02  1.55D+01    2.79581D-02
         5    1.44803D-02  0.00D+00  1.45D-02  1.63D+01    3.72775D-02
         6    1.52470D-02  0.00D+00  1.52D-02  1.74D+01    4.65969D-02
         7    1.62997D-02  0.00D+00  1.63D-02  1.88D+01    5.59163D-02
         8    1.77308D-02  0.00D+00  1.77D-02  2.06D+01    6.52356D-02
         9    1.96799D-02  0.00D+00  1.97D-02  2.30D+01    7.45550D-02

 *** THE REQUESTED    9 SOLUTION VECTORS CONVERGED

 Convergence of RSP solution vectors, threshold = 1.00D-03
 ---------------------------------------------------------------
 (dimension of paired reduced space:   34)
 RSP solution vector no.    1; norm of residual   9.13D-04
 RSP solution vector no.    2; norm of residual   9.11D-04
 RSP solution vector no.    3; norm of residual   9.06D-04
 RSP solution vector no.    4; norm of residual   8.98D-04
 RSP solution vector no.    5; norm of residual   8.89D-04
 RSP solution vector no.    6; norm of residual   8.78D-04
 RSP solution vector no.    7; norm of residual   8.69D-04
 RSP solution vector no.    8; norm of residual   8.61D-04
 RSP solution vector no.    9; norm of residual   8.57D-04

 *** RSPCTL MICROITERATIONS CONVERGED


           Final output of second order properties from linear response
           ------------------------------------------------------------


@ Spin symmetry of operators: singlet

 Note that minus the linear response function: - << A; B >>(omega) is printed.
 The results are of quadratic accuracy using Sellers formula.

@ FREQUENCY INDEPENDENT SECOND ORDER PROPERTIES

@ -<< YDIPLEN  ; YDIPLEN  >> =  8.158691506325E+01

@ FREQUENCY DEPENDENT SECOND ORDER PROPERTIES WITH FREQUENCY :

@    a.u.:  9.3193750D-03
@    cm-1:  2.0453664D+03
@    eV  :  2.5359309D-01
@  kJ/mol:  2.4468015D+01
@    nm  :  4.8890996D+03

@ -<< YDIPLEN  ; YDIPLEN  >> =  8.189851988080E+01

@ FREQUENCY DEPENDENT SECOND ORDER PROPERTIES WITH FREQUENCY :

@    a.u.:  1.8638750D-02
@    cm-1:  4.0907327D+03
@    eV  :  5.0718619D-01
@  kJ/mol:  4.8936031D+01
@    nm  :  2.4445498D+03

@ -<< YDIPLEN  ; YDIPLEN  >> =  8.284813946892E+01

@ FREQUENCY DEPENDENT SECOND ORDER PROPERTIES WITH FREQUENCY :

@    a.u.:  2.7958125D-02
@    cm-1:  6.1360991D+03
@    eV  :  7.6077928D-01
@  kJ/mol:  7.3404046D+01
@    nm  :  1.6296999D+03

@ -<< YDIPLEN  ; YDIPLEN  >> =  8.448199880872E+01

@ FREQUENCY DEPENDENT SECOND ORDER PROPERTIES WITH FREQUENCY :

@    a.u.:  3.7277500D-02
@    cm-1:  8.1814655D+03
@    eV  :  1.0143724D+00
@  kJ/mol:  9.7872061D+01
@    nm  :  1.2222749D+03

@ -<< YDIPLEN  ; YDIPLEN  >> =  8.688359823475E+01

@ FREQUENCY DEPENDENT SECOND ORDER PROPERTIES WITH FREQUENCY :

@    a.u.:  4.6596875D-02
@    cm-1:  1.0226832D+04
@    eV  :  1.2679655D+00
@  kJ/mol:  1.2234008D+02
@    nm  :  9.7781993D+02

@ -<< YDIPLEN  ; YDIPLEN  >> =  9.018506373037E+01

@ FREQUENCY DEPENDENT SECOND ORDER PROPERTIES WITH FREQUENCY :

@    a.u.:  5.5916250D-02
@    cm-1:  1.2272198D+04
@    eV  :  1.5215586D+00
@  kJ/mol:  1.4680809D+02
@    nm  :  8.1484994D+02

@ -<< YDIPLEN  ; YDIPLEN  >> =  9.458707109112E+01

@ FREQUENCY DEPENDENT SECOND ORDER PROPERTIES WITH FREQUENCY :

@    a.u.:  6.5235625D-02
@    cm-1:  1.4317565D+04
@    eV  :  1.7751517D+00
@  kJ/mol:  1.7127611D+02
@    nm  :  6.9844281D+02

@ -<< YDIPLEN  ; YDIPLEN  >> =  1.003935007475E+02

@ FREQUENCY DEPENDENT SECOND ORDER PROPERTIES WITH FREQUENCY :

@    a.u.:  7.4555000D-02
@    cm-1:  1.6362931D+04
@    eV  :  2.0287447D+00
@  kJ/mol:  1.9574412D+02
@    nm  :  6.1113745D+02

@ -<< YDIPLEN  ; YDIPLEN  >> =  1.080734333795E+02


 Time used in linear response calculation is      0.95 CPU seconds for symmetry 3
 ----------------------------------------------------------------
 ----- Linear response calculation
 ----- Symmetry of excitation/property operator(s)    5  ( B1u)
 ----------------------------------------------------------------

 Number of excitations of this symmetry            0
 Number of response properties of this symmetry    1
 Number of C6/C8 properties of this symmetry       0


 Perturbation symmetry.     KSYMOP:           5
 Perturbation spin symmetry.TRPLET:           F
 Orbital variables.         KZWOPT:         110
 Configuration variables.   KZCONF:           0
 Total number of variables. KZVAR :         110


 RSPLR -- linear response calculation for symmetry 5  ( B1u)
 RSPLR -- operator label : ZDIPLEN 
 RSPLR -- operator spin  :   0
 RSPLR -- frequencies    :     0.000000  0.009319  0.018639  0.027958  0.037277
                               0.046597  0.055916  0.065236  0.074555



 ---  SOLVING SETS OF LINEAR EQUATIONS FOR LINEAR RESPONSE PROPERTIES ---

 Operator symmetry = 5  ( B1u); triplet =   F

RSPORT:    1 out of    9 new trial vectors linear dependent

 ** RSPCTL MICROITERATION NUMBER    1

       No.  Residual tot.,    conf., and orb.    Bnorm      Frequency 
      ----------------------------------------------------------------
         1    3.46368D-01  0.00D+00  3.46D-01  1.46D+01    0.00000D+00
         2    3.48876D-01  0.00D+00  3.49D-01  1.47D+01    9.31937D-03
         3    3.56501D-01  0.00D+00  3.57D-01  1.50D+01    1.86387D-02
         4    3.69556D-01  0.00D+00  3.70D-01  1.55D+01    2.79581D-02
         5    3.88613D-01  0.00D+00  3.89D-01  1.63D+01    3.72775D-02
         6    4.14583D-01  0.00D+00  4.15D-01  1.74D+01    4.65969D-02
         7    4.48867D-01  0.00D+00  4.49D-01  1.87D+01    5.59163D-02
         8    4.93598D-01  0.00D+00  4.94D-01  2.06D+01    6.52356D-02
         9    5.52089D-01  0.00D+00  5.52D-01  2.30D+01    7.45550D-02

 ** RSPCTL MICROITERATION NUMBER    2

       No.  Residual tot.,    conf., and orb.    Bnorm      Frequency 
      ----------------------------------------------------------------
         1    1.61293D-02  0.00D+00  1.61D-02  1.46D+01    0.00000D+00
         2    1.62081D-02  0.00D+00  1.62D-02  1.47D+01    9.31937D-03
         3    1.64484D-02  0.00D+00  1.64D-02  1.50D+01    1.86387D-02
         4    1.68629D-02  0.00D+00  1.69D-02  1.55D+01    2.79581D-02
         5    1.74741D-02  0.00D+00  1.75D-02  1.63D+01    3.72775D-02
         6    1.83177D-02  0.00D+00  1.83D-02  1.74D+01    4.65969D-02
         7    1.94475D-02  0.00D+00  1.94D-02  1.88D+01    5.59163D-02
         8    2.09445D-02  0.00D+00  2.09D-02  2.06D+01    6.52356D-02
         9    2.29331D-02  0.00D+00  2.29D-02  2.30D+01    7.45550D-02

 ** RSPCTL MICROITERATION NUMBER    3

       No.  Residual tot.,    conf., and orb.    Bnorm      Frequency 
      ----------------------------------------------------------------
         1    7.82066D-04  0.00D+00  7.82D-04  1.46D+01    0.00000D+00
         2    7.86050D-04  0.00D+00  7.86D-04  1.47D+01    9.31937D-03
         3    7.98182D-04  0.00D+00  7.98D-04  1.50D+01    1.86387D-02
         4    8.19026D-04  0.00D+00  8.19D-04  1.55D+01    2.79581D-02
         5    8.49596D-04  0.00D+00  8.50D-04  1.63D+01    3.72775D-02
         6    8.91500D-04  0.00D+00  8.92D-04  1.74D+01    4.65969D-02
         7    9.47174D-04  0.00D+00  9.47D-04  1.88D+01    5.59163D-02
         8    1.02030D-03  0.00D+00  1.02D-03  2.06D+01    6.52356D-02
         9    1.11655D-03  0.00D+00  1.12D-03  2.30D+01    7.45550D-02

 *** THE REQUESTED    9 SOLUTION VECTORS CONVERGED

 Convergence of RSP solution vectors, threshold = 1.00D-03
 ---------------------------------------------------------------
 (dimension of paired reduced space:   50)
 RSP solution vector no.    1; norm of residual   5.37D-05
 RSP solution vector no.    2; norm of residual   5.36D-05
 RSP solution vector no.    3; norm of residual   5.33D-05
 RSP solution vector no.    4; norm of residual   5.28D-05
 RSP solution vector no.    5; norm of residual   5.21D-05
 RSP solution vector no.    6; norm of residual   5.14D-05
 RSP solution vector no.    7; norm of residual   5.05D-05
 RSP solution vector no.    8; norm of residual   4.96D-05
 RSP solution vector no.    9; norm of residual   4.86D-05

 *** RSPCTL MICROITERATIONS CONVERGED


           Final output of second order properties from linear response
           ------------------------------------------------------------


@ Spin symmetry of operators: singlet

 Note that minus the linear response function: - << A; B >>(omega) is printed.
 The results are of quadratic accuracy using Sellers formula.

@ FREQUENCY INDEPENDENT SECOND ORDER PROPERTIES

@ -<< ZDIPLEN  ; ZDIPLEN  >> =  8.158692005506E+01

@ FREQUENCY DEPENDENT SECOND ORDER PROPERTIES WITH FREQUENCY :

@    a.u.:  9.3193750D-03
@    cm-1:  2.0453664D+03
@    eV  :  2.5359309D-01
@  kJ/mol:  2.4468015D+01
@    nm  :  4.8890996D+03

@ -<< ZDIPLEN  ; ZDIPLEN  >> =  8.189852495803E+01

@ FREQUENCY DEPENDENT SECOND ORDER PROPERTIES WITH FREQUENCY :

@    a.u.:  1.8638750D-02
@    cm-1:  4.0907327D+03
@    eV  :  5.0718619D-01
@  kJ/mol:  4.8936031D+01
@    nm  :  2.4445498D+03

@ -<< ZDIPLEN  ; ZDIPLEN  >> =  8.284814481063E+01

@ FREQUENCY DEPENDENT SECOND ORDER PROPERTIES WITH FREQUENCY :

@    a.u.:  2.7958125D-02
@    cm-1:  6.1360991D+03
@    eV  :  7.6077928D-01
@  kJ/mol:  7.3404046D+01
@    nm  :  1.6296999D+03

@ -<< ZDIPLEN  ; ZDIPLEN  >> =  8.448200462020E+01

@ FREQUENCY DEPENDENT SECOND ORDER PROPERTIES WITH FREQUENCY :

@    a.u.:  3.7277500D-02
@    cm-1:  8.1814655D+03
@    eV  :  1.0143724D+00
@  kJ/mol:  9.7872061D+01
@    nm  :  1.2222749D+03

@ -<< ZDIPLEN  ; ZDIPLEN  >> =  8.688360477043E+01

@ FREQUENCY DEPENDENT SECOND ORDER PROPERTIES WITH FREQUENCY :

@    a.u.:  4.6596875D-02
@    cm-1:  1.0226832D+04
@    eV  :  1.2679655D+00
@  kJ/mol:  1.2234008D+02
@    nm  :  9.7781993D+02

@ -<< ZDIPLEN  ; ZDIPLEN  >> =  9.018507132678E+01

@ FREQUENCY DEPENDENT SECOND ORDER PROPERTIES WITH FREQUENCY :

@    a.u.:  5.5916250D-02
@    cm-1:  1.2272198D+04
@    eV  :  1.5215586D+00
@  kJ/mol:  1.4680809D+02
@    nm  :  8.1484994D+02

@ -<< ZDIPLEN  ; ZDIPLEN  >> =  9.458708021872E+01

@ FREQUENCY DEPENDENT SECOND ORDER PROPERTIES WITH FREQUENCY :

@    a.u.:  6.5235625D-02
@    cm-1:  1.4317565D+04
@    eV  :  1.7751517D+00
@  kJ/mol:  1.7127611D+02
@    nm  :  6.9844281D+02

@ -<< ZDIPLEN  ; ZDIPLEN  >> =  1.003935120978E+02

@ FREQUENCY DEPENDENT SECOND ORDER PROPERTIES WITH FREQUENCY :

@    a.u.:  7.4555000D-02
@    cm-1:  1.6362931D+04
@    eV  :  2.0287447D+00
@  kJ/mol:  1.9574412D+02
@    nm  :  6.1113745D+02

@ -<< ZDIPLEN  ; ZDIPLEN  >> =  1.080734480221E+02


 Time used in linear response calculation is      1.40 CPU seconds for symmetry 5

  Total CPU  time used in RESPONSE:   3.30 seconds
  Total wall time used in RESPONSE:   3.31 seconds


                   .-------------------------------------------.
                   | End of Dynamic Property Section (RESPONS) |
                   `-------------------------------------------'

  Total CPU  time used in DALTON:   4.48 seconds
  Total wall time used in DALTON:   4.51 seconds

 
     Date and time (Linux)  : Wed Jan 11 14:15:04 2023
     Host name              : cn020                                   
