

     ************************************************************************
     *************** Dalton - An Electronic Structure Program ***************
     ************************************************************************

    This is output from DALTON release Dalton2020.0 (2020)
         ( Web site: http://daltonprogram.org )

   ----------------------------------------------------------------------------

    NOTE:
     
    Dalton is an experimental code for the evaluation of molecular
    properties using (MC)SCF, DFT, CI, and CC wave functions.
    The authors accept no responsibility for the performance of
    the code or for the correctness of the results.
     
    The code (in whole or part) is provided under a licence and
    is not to be reproduced for further distribution without
    the written permission of the authors or their representatives.
     
    See the home page "http://daltonprogram.org" for further information.
     
    If results obtained with this code are published,
    the appropriate citations would be both of:
     
       K. Aidas, C. Angeli, K. L. Bak, V. Bakken, R. Bast,
       L. Boman, O. Christiansen, R. Cimiraglia, S. Coriani,
       P. Dahle, E. K. Dalskov, U. Ekstroem,
       T. Enevoldsen, J. J. Eriksen, P. Ettenhuber, B. Fernandez,
       L. Ferrighi, H. Fliegl, L. Frediani, K. Hald, A. Halkier,
       C. Haettig, H. Heiberg, T. Helgaker, A. C. Hennum,
       H. Hettema, E. Hjertenaes, S. Hoest, I.-M. Hoeyvik,
       M. F. Iozzi, B. Jansik, H. J. Aa. Jensen, D. Jonsson,
       P. Joergensen, J. Kauczor, S. Kirpekar,
       T. Kjaergaard, W. Klopper, S. Knecht, R. Kobayashi, H. Koch,
       J. Kongsted, A. Krapp, K. Kristensen, A. Ligabue,
       O. B. Lutnaes, J. I. Melo, K. V. Mikkelsen, R. H. Myhre,
       C. Neiss, C. B. Nielsen, P. Norman, J. Olsen,
       J. M. H. Olsen, A. Osted, M. J. Packer, F. Pawlowski,
       T. B. Pedersen, P. F. Provasi, S. Reine, Z. Rinkevicius,
       T. A. Ruden, K. Ruud, V. Rybkin, P. Salek, C. C. M. Samson,
       A. Sanchez de Meras, T. Saue, S. P. A. Sauer,
       B. Schimmelpfennig, K. Sneskov, A. H. Steindal,
       K. O. Sylvester-Hvid, P. R. Taylor, A. M. Teale,
       E. I. Tellgren, D. P. Tew, A. J. Thorvaldsen, L. Thoegersen,
       O. Vahtras, M. A. Watson, D. J. D. Wilson, M. Ziolkowski
       and H. Agren,
       "The Dalton quantum chemistry program system",
       WIREs Comput. Mol. Sci. 2014, 4:269–284 (doi: 10.1002/wcms.1172)
     
    and
     
       Dalton, a molecular electronic structure program,
       Release Dalton2020.0 (2020), see http://daltonprogram.org
   ----------------------------------------------------------------------------

    Authors in alphabetical order (Major contribution(s) in parenthesis):

  Kestutis Aidas,           Vilnius University,           Lithuania   (QM/MM)
  Celestino Angeli,         University of Ferrara,        Italy       (NEVPT2)
  Keld L. Bak,              UNI-C,                        Denmark     (AOSOPPA, non-adiabatic coupling, magnetic properties)
  Vebjoern Bakken,          University of Oslo,           Norway      (DALTON; geometry optimizer, symmetry detection)
  Radovan Bast,             UiT The Arctic U. of Norway,  Norway      (DALTON installation and execution frameworks)
  Pablo Baudin,             University of Valencia,       Spain       (Cholesky excitation energies)
  Linus Boman,              NTNU,                         Norway      (Cholesky decomposition and subsystems)
  Bruno N. Cabral Tenorio,  Technical Univ. of Denmark,   Denmark     (Lanczos-based CC methods)
  Ove Christiansen,         Aarhus University,            Denmark     (CC module)
  Renzo Cimiraglia,         University of Ferrara,        Italy       (NEVPT2)
  Sonia Coriani,            Technical Univ. of Denmark,   Denmark     (CC and RESPONS modules)
  Janusz Cukras,            University of Warsaw,         Poland      (MChD in RESPONS)
  Paal Dahle,               University of Oslo,           Norway      (Parallelization)
  Erik K. Dalskov,          UNI-C,                        Denmark     (SOPPA)
  Thomas Enevoldsen,        Univ. of Southern Denmark,    Denmark     (SOPPA)
  Janus J. Eriksen,         Aarhus University,            Denmark     (Polarizable embedding, TDA)
  Rasmus Faber,             Technical Univ. of Denmark,   Denmark     (Vib.avg. NMR w. SOPPA, parallel AO-SOPPA, CVS-CC and EOMCC)
  Tobias Fahleson,          KTH Stockholm,                Sweden      (Damped cubic response)
  Berta Fernandez,          U. of Santiago de Compostela, Spain       (Doublet spin, ESR in RESPONS)
  Lara Ferrighi,            Aarhus University,            Denmark     (PCM Cubic response)
  Heike Fliegl,             University of Oslo,           Norway      (CCSD(R12))
  Luca Frediani,            UiT The Arctic U. of Norway,  Norway      (PCM)
  Emmanuel Fromager,        Univ. Strasbourg,             France      (MC-srDFT)
  Bin Gao,                  UiT The Arctic U. of Norway,  Norway      (Gen1Int library)
  Andre S. P. Gomes,        CNRS/Universite de Lille,     France      (Frozen density embedding)
  Christof Haettig,         Ruhr-University Bochum,       Germany     (CC module)
  Kasper Hald,              Aarhus University,            Denmark     (CC module)
  Asger Halkier,            Aarhus University,            Denmark     (CC module)
  Frederik Beyer Hansen,    University of Copenhagen,     Denmark     (Parallel AO-SOPPA)
  Erik D. Hedegaard,        Univ. of Southern Denmark,    Denmark     (Polarizable embedding, QM/MM, and MC-srDFT)
  Hanne Heiberg,            University of Oslo,           Norway      (Geometry analysis, selected one-electron integrals)
  Trygve Helgaker,          University of Oslo,           Norway      (DALTON; ABACUS, ERI, DFT modules, London, and much more)
  Alf Christian Hennum,     University of Oslo,           Norway      (Parity violation)
  Hinne Hettema,            University of Auckland,       New Zealand (Quadratic response in RESPONS; SIRIUS supersymmetry)
  Eirik Hjertenaes,         NTNU,                         Norway      (Cholesky decomposition)
  Pi A. B. Haase,           University of Copenhagen,     Denmark     (Triplet AO-SOPPA)
  Maria Francesca Iozzi,    University of Oslo,           Norway      (RPA)
  Christoph Jacob           TU Braunschweig               Germany     (Frozen density embedding)
  Brano Jansik              Technical Univ. of Ostrava    Czech Rep.  (DFT cubic response)
  Hans Joergen Aa. Jensen,  Univ. of Southern Denmark,    Denmark     (DALTON; SIRIUS, RESPONS, ABACUS, MC-srDFT, and much more)
  Dan Jonsson,              UiT The Arctic U. of Norway,  Norway      (Cubic response in RESPONS module)
  Poul Joergensen,          Aarhus University,            Denmark     (RESPONS, ABACUS, and CC modules)
  Maciej Kaminski,          University of Warsaw,         Poland      (CPPh in RESPONS)
  Joanna Kauczor,           Linkoeping University,        Sweden      (Complex polarization propagator (CPP) module)
  Sheela Kirpekar,          Univ. of Southern Denmark,    Denmark     (Mass-velocity & Darwin integrals)
  Erik Kjellgren,           Univ. of Southern Denmark,    Denmark     (MC-srDFT)
  Wim Klopper,              KIT Karlsruhe,                Germany     (R12 code in CC, SIRIUS, and ABACUS modules)
  Stefan Knecht,            ETH Zurich,                   Switzerland (Parallel CI and MCSCF, MC-srDFT)
  Rika Kobayashi,           Australian National Univ.,    Australia   (DIIS in CC, London in MCSCF)
  Henrik Koch,              NTNU,                         Norway      (CC module, Cholesky decomposition)
  Jacob Kongsted,           Univ. of Southern Denmark,    Denmark     (Polarizable embedding, polarizable density embedding, QM/MM)
  Andrea Ligabue,           University of Modena,         Italy       (CTOCD, AOSOPPA)
  Nanna H. List             Univ. of Southern Denmark,    Denmark     (Polarizable embedding)
  Ola B. Lutnaes,           University of Oslo,           Norway      (DFT Hessian)
  Juan I. Melo,             University of Buenos Aires,   Argentina   (LRESC, Relativistic Effects on NMR Shieldings)
  Kurt V. Mikkelsen,        University of Copenhagen,     Denmark     (MC-SCRF and QM/MM)
  Rolf H. Myhre,            NTNU,                         Norway      (Subsystems and CC3)
  Christian Neiss,          Univ. Erlangen-Nuernberg,     Germany     (CCSD(R12))
  Christian B. Nielsen,     University of Copenhagen,     Denmark     (QM/MM)
  Patrick Norman,           KTH Stockholm,                Sweden      (Cubic response and complex frequency response in RESPONS)
  Jeppe Olsen,              Aarhus University,            Denmark     (SIRIUS CI/density modules)
  Jogvan Magnus H. Olsen,   Aarhus University,            Denmark     (Polarizable embedding and polarizable density embedding)
  Anders Osted,             Copenhagen University,        Denmark     (QM/MM)
  Martin J. Packer,         University of Sheffield,      UK          (SOPPA)
  Filip Pawlowski,          Kazimierz Wielki University,  Poland      (CC3)
  Morten N. Pedersen,       Univ. of Southern Denmark,    Denmark     (Polarizable embedding)
  Thomas B. Pedersen,       University of Oslo,           Norway      (Cholesky decomposition)
  Patricio F. Provasi,      University of Northeastern,   Argentina   (Analysis of coupling constants in localized orbitals)
  Peter Reinholdt,          Univ. of Southern Denmark,    Denmark     (Polarizable embedding and polarizable density embedding)
  Zilvinas Rinkevicius,     KTH Stockholm,                Sweden      (open-shell DFT, ESR)
  Elias Rudberg,            KTH Stockholm,                Sweden      (DFT grid and basis info)
  Torgeir A. Ruden,         University of Oslo,           Norway      (Numerical derivatives in ABACUS)
  Kenneth Ruud,             UiT The Arctic U. of Norway,  Norway      (DALTON; ABACUS magnetic properties and much more)
  Pawel Salek,              KTH Stockholm,                Sweden      (DALTON; DFT code)
  Claire C. M. Samson       University of Karlsruhe       Germany     (Boys localization, r12 integrals in ERI)
  Alfredo Sanchez de Meras, University of Valencia,       Spain       (CC module, Cholesky decomposition)
  Trond Saue,               Paul Sabatier University,     France      (direct Fock matrix construction)
  Stephan P. A. Sauer,      University of Copenhagen,     Denmark     (SOPPA(CCSD), SOPPA prop., AOSOPPA, vibrational g-factors)
  Bernd Schimmelpfennig,    Forschungszentrum Karlsruhe,  Germany     (AMFI module)
  Anna K. Schnack-Petersen, University of Copenhagen,     Denmark     (RPA(D) and HRPA(D) properties in AOSOPPA)
  Kristian Sneskov,         Aarhus University,            Denmark     (Polarizable embedding, QM/MM)
  Arnfinn H. Steindal,      UiT The Arctic U. of Norway,  Norway      (parallel QM/MM, polarizable embedding)
  Casper Steinmann,         Aalborg University,           Denmark     (QFIT, polarizable embedding)
  K. O. Sylvester-Hvid,     University of Copenhagen,     Denmark     (MC-SCRF)
  Peter R. Taylor,          VLSCI/Univ. of Melbourne,     Australia   (Symmetry handling ABACUS, integral transformation)
  Andrew M. Teale,          University of Nottingham,     England     (DFT-AC, DFT-D)
  David P. Tew,             University of Bristol,        England     (CCSD(R12))
  Julien Toulouse,          Sorbonne Univ.,               France      (MC-srDFT)
  Olav Vahtras,             KTH Stockholm,                Sweden      (Triplet response, spin-orbit, ESR, TDDFT, open-shell DFT)
  Lucas Visscher,           Vrije Universiteit Amsterdam, Netherlands (Frozen density embedding)
  David J. Wilson,          La Trobe University,          Australia   (DFT Hessian and DFT magnetizabilities)
  Hans Agren,               KTH Stockholm,                Sweden      (SIRIUS module, RESPONS, MC-SCRF solvation)
 --------------------------------------------------------------------------------

     Date and time (Linux)  : Wed Jan 11 15:39:07 2023
     Host name              : cn036                                   

 * Work memory size             :    64000000 =  488.28 megabytes.

 * Directories for basis set searches:
   1) /gpfs/projects/rjh/adrian/fd_compare/dalton/hf/Mg/dipole
   2) /gpfs/projects/rjh/adrian/dalton/build/basis


Compilation information
-----------------------

 Who compiled             | ahurtado
 Host                     | sn-mem
 System                   | Linux-3.10.0-1160.24.1.el7.x86_64
 CMake generator          | Unix Makefiles
 Processor                | x86_64
 64-bit integers          | OFF
 MPI                      | ON
 Fortran compiler         | /gpfs/software/intel/oneAPI/2021_4/mpi/2021.4.0/bi
                          | n/mpif90
 Fortran compiler version | GNU Fortran (GCC) 11.2.0
 C compiler               | /gpfs/software/intel/oneAPI/2021_4/mpi/2021.4.0/bi
                          | n/mpicc
 C compiler version       | gcc (GCC) 11.2.0
 C++ compiler             | /gpfs/software/intel/oneAPI/2021_4/mpi/2021.4.0/bi
                          | n/mpicxx
 C++ compiler version     | unknown
 BLAS                     | /gpfs/software/intel/oneAPI/2021_4/mkl/2021.4.0/li
                          | b/intel64/libmkl_gf_lp64.so;/gpfs/software/intel/o
                          | neAPI/2021_4/mkl/2021.4.0/lib/intel64/libmkl_seque
                          | ntial.so;/gpfs/software/intel/oneAPI/2021_4/mkl/20
                          | 21.4.0/lib/intel64/libmkl_core.so;/usr/lib64/libpt
                          | hread.so;/usr/lib64/libm.so
 LAPACK                   | /gpfs/software/intel/oneAPI/2021_4/mkl/2021.4.0/li
                          | b/intel64/libmkl_lapack95_lp64.a;/gpfs/software/in
                          | tel/oneAPI/2021_4/mkl/2021.4.0/lib/intel64/libmkl_
                          | gf_lp64.so
 Static linking           | OFF
 Last Git revision        | 66052b3af5ea7225e31178bf9a8b031913c72190
 Git branch               | (HEAD detached at Dalton2020.0)
 Configuration time       | 2023-01-11 13:33:37.731835

 * MPI parallel run using 20 processes.


   Content of the .dal input file
 ----------------------------------

**DALTON INPUT
.RUN RESPONSE
.DIRECT
**WAVE FUNCTIONS
.HF
**RESPONSE
*LINEAR
.DIPLEN
.FREQUENCIES
9
0.0 0.009319375 0.01863875 0.027958125 0.0372775 0.046596874999999996 0.05591625 0.06523562499999999
**END OF DALTON INPUT


   Content of the .mol file
 ----------------------------

BASIS
d-aug-cc-pCVQZ
blah
blah
Atomtype=1 Atomic
Charge=12 Atoms=1
Mg_a 0.000000000000 0.000000000000 0.000000000000


       *******************************************************************
       *********** Output from DALTON general input processing ***********
       *******************************************************************

 --------------------------------------------------------------------------------
   Overall default print level:    0
   Print level for DALTON.STAT:    1

    Parallel calculation using MPI
    AO-direct calculation (in sections where implemented)
    HERMIT 1- and 2-electron integral sections will be executed
    "Old" integral transformation used (limited to max 255 basis functions)
    Wave function sections will be executed (SIRIUS module)
    Dynamic molecular response properties section will be executed (RESPONSE module)
 --------------------------------------------------------------------------------


   ****************************************************************************
   *************** Output of molecule and basis set information ***************
   ****************************************************************************


    The two title cards from your ".mol" input:
    ------------------------------------------------------------------------
 1: blah                                                                    
 2: blah                                                                    
    ------------------------------------------------------------------------

  Atomic type no.    1
  --------------------
  Nuclear charge:  12.00000
  Number of symmetry independent centers:    1
  Number of basis sets to read;    2
  Basis set file used for this atomic type with Z =  12 :
     "/gpfs/projects/rjh/adrian/dalton/build/basis/aug-cc-pCVQZ"


                      SYMADD: Requested addition of symmetry
                      --------------------------------------

 Symmetry test threshold:  5.00E-06

@   The molecule is centered at center of mass and rotated
@   so principal axes of inertia are along coordinate axes.

 Symmetry class found: D(oo,h)        

 Symmetry Independent Centres             
 ----------------------------
Mg_a  12 :      0.00000000     0.00000000     0.00000000  Isotope  1

 The following symmetry elements were found:   X  Y  Z  


                         SYMGRP: Point group information
                         -------------------------------

@    Full point group is: D(oo,h)        
@    Represented as:      D2h

@  * The irrep name for each symmetry:    1: Ag     2: B3u    3: B2u    4: B1g    5: B1u    6: B2g    7: B3g    8: Au 


   * The point group was generated by:

      Reflection in the yz-plane
      Reflection in the xz-plane
      Reflection in the xy-plane

   * Group multiplication table

        |  E   C2z  C2y  C2x   i   Oxy  Oxz  Oyz
   -----+----------------------------------------
     E  |  E   C2z  C2y  C2x   i   Oxy  Oxz  Oyz
    C2z | C2z   E   C2x  C2y  Oxy   i   Oyz  Oxz
    C2y | C2y  C2x   E   C2z  Oxz  Oyz   i   Oxy
    C2x | C2x  C2y  C2z   E   Oyz  Oxz  Oxy   i 
     i  |  i   Oxy  Oxz  Oyz   E   C2z  C2y  C2x
    Oxy | Oxy   i   Oyz  Oxz  C2z   E   C2x  C2y
    Oxz | Oxz  Oyz   i   Oxy  C2y  C2x   E   C2z
    Oyz | Oyz  Oxz  Oxy   i   C2x  C2y  C2z   E 

   * Character table

        |  E   C2z  C2y  C2x   i   Oxy  Oxz  Oyz
   -----+----------------------------------------
    Ag  |   1    1    1    1    1    1    1    1
    B3u |   1   -1   -1    1   -1    1    1   -1
    B2u |   1   -1    1   -1   -1    1   -1    1
    B1g |   1    1   -1   -1    1    1   -1   -1
    B1u |   1    1   -1   -1   -1   -1    1    1
    B2g |   1   -1    1   -1    1   -1    1   -1
    B3g |   1   -1   -1    1    1   -1   -1    1
    Au  |   1    1    1    1   -1   -1   -1   -1

   * Direct product table

        | Ag   B3u  B2u  B1g  B1u  B2g  B3g  Au 
   -----+----------------------------------------
    Ag  | Ag   B3u  B2u  B1g  B1u  B2g  B3g  Au 
    B3u | B3u  Ag   B1g  B2u  B2g  B1u  Au   B3g
    B2u | B2u  B1g  Ag   B3u  B3g  Au   B1u  B2g
    B1g | B1g  B2u  B3u  Ag   Au   B3g  B2g  B1u
    B1u | B1u  B2g  B3g  Au   Ag   B3u  B2u  B1g
    B2g | B2g  B1u  Au   B3g  B3u  Ag   B1g  B2u
    B3g | B3g  Au   B1u  B2g  B2u  B1g  Ag   B3u
    Au  | Au   B3g  B2g  B1u  B1g  B2u  B3u  Ag 


                                 Isotopic Masses
                                 ---------------

                           Mg_a       23.985045

                       Total mass:    23.985045 amu
                       Natural abundance:  78.990 %

 Center-of-mass coordinates (a.u.):    0.000000    0.000000    0.000000
 Center-of-mass coordinates (Angs):    0.000000    0.000000    0.000000


  Atoms and basis sets
  --------------------

  Number of atom types :    1
  Total number of atoms:    1

  Basis set used is "d-aug-cc-pCVQZ" from the basis set library.

  label    atoms   charge   prim   cont     basis
  ----------------------------------------------------------------------
  Mg          1   12.0000   190   159      [21s17p8d6f4g|11s10p8d6f4g]                        
  ----------------------------------------------------------------------
  total:      1   12.0000   190   159
  ----------------------------------------------------------------------
  Spherical harmonic basis used.

  Threshold for neglecting AO integrals:  1.00D-12


  Cartesian Coordinates (a.u.)
  ----------------------------

  Total number of coordinates:    3
  Mg_a    :     1  x   0.0000000000    2  y   0.0000000000    3  z   0.0000000000


  Symmetry Coordinates
  --------------------

  Number of coordinates in each symmetry:     0    1    1    0    1    0    0    0

  Symmetry  B3u ( 2)

    1   Mg_a  x    1

  Symmetry  B2u ( 3)

    2   Mg_a  y    2

  Symmetry  B1u ( 5)

    3   Mg_a  z    3


@ This is an atomic calculation.


  Symmetry Orbitals
  -----------------

  Number of orbitals in each symmetry:          39   22   22   16   22   16   16    6


  Symmetry  Ag ( 1)

    1     Mg_a     1s         1
    2     Mg_a     1s         2
    3     Mg_a     1s         3
    4     Mg_a     1s         4
    5     Mg_a     1s         5
    6     Mg_a     1s         6
    7     Mg_a     1s         7
    8     Mg_a     1s         8
    9     Mg_a     1s         9
   10     Mg_a     1s        10
   11     Mg_a     1s        11
   12     Mg_a     3d0       44
   13     Mg_a     3d2+      46
   14     Mg_a     3d0       49
   15     Mg_a     3d2+      51
   16     Mg_a     3d0       54
   17     Mg_a     3d2+      56
   18     Mg_a     3d0       59
   19     Mg_a     3d2+      61
   20     Mg_a     3d0       64
   21     Mg_a     3d2+      66
   22     Mg_a     3d0       69
   23     Mg_a     3d2+      71
   24     Mg_a     3d0       74
   25     Mg_a     3d2+      76
   26     Mg_a     3d0       79
   27     Mg_a     3d2+      81
   28     Mg_a     5g0      128
   29     Mg_a     5g2+     130
   30     Mg_a     5g4+     132
   31     Mg_a     5g0      137
   32     Mg_a     5g2+     139
   33     Mg_a     5g4+     141
   34     Mg_a     5g0      146
   35     Mg_a     5g2+     148
   36     Mg_a     5g4+     150
   37     Mg_a     5g0      155
   38     Mg_a     5g2+     157
   39     Mg_a     5g4+     159


  Symmetry  B3u( 2)

   40     Mg_a     2px       12
   41     Mg_a     2px       15
   42     Mg_a     2px       18
   43     Mg_a     2px       21
   44     Mg_a     2px       24
   45     Mg_a     2px       27
   46     Mg_a     2px       30
   47     Mg_a     2px       33
   48     Mg_a     2px       36
   49     Mg_a     2px       39
   50     Mg_a     4f1+      86
   51     Mg_a     4f3+      88
   52     Mg_a     4f1+      93
   53     Mg_a     4f3+      95
   54     Mg_a     4f1+     100
   55     Mg_a     4f3+     102
   56     Mg_a     4f1+     107
   57     Mg_a     4f3+     109
   58     Mg_a     4f1+     114
   59     Mg_a     4f3+     116
   60     Mg_a     4f1+     121
   61     Mg_a     4f3+     123


  Symmetry  B2u( 3)

   62     Mg_a     2py       13
   63     Mg_a     2py       16
   64     Mg_a     2py       19
   65     Mg_a     2py       22
   66     Mg_a     2py       25
   67     Mg_a     2py       28
   68     Mg_a     2py       31
   69     Mg_a     2py       34
   70     Mg_a     2py       37
   71     Mg_a     2py       40
   72     Mg_a     4f3-      82
   73     Mg_a     4f1-      84
   74     Mg_a     4f3-      89
   75     Mg_a     4f1-      91
   76     Mg_a     4f3-      96
   77     Mg_a     4f1-      98
   78     Mg_a     4f3-     103
   79     Mg_a     4f1-     105
   80     Mg_a     4f3-     110
   81     Mg_a     4f1-     112
   82     Mg_a     4f3-     117
   83     Mg_a     4f1-     119


  Symmetry  B1g( 4)

   84     Mg_a     3d2-      42
   85     Mg_a     3d2-      47
   86     Mg_a     3d2-      52
   87     Mg_a     3d2-      57
   88     Mg_a     3d2-      62
   89     Mg_a     3d2-      67
   90     Mg_a     3d2-      72
   91     Mg_a     3d2-      77
   92     Mg_a     5g4-     124
   93     Mg_a     5g2-     126
   94     Mg_a     5g4-     133
   95     Mg_a     5g2-     135
   96     Mg_a     5g4-     142
   97     Mg_a     5g2-     144
   98     Mg_a     5g4-     151
   99     Mg_a     5g2-     153


  Symmetry  B1u( 5)

  100     Mg_a     2pz       14
  101     Mg_a     2pz       17
  102     Mg_a     2pz       20
  103     Mg_a     2pz       23
  104     Mg_a     2pz       26
  105     Mg_a     2pz       29
  106     Mg_a     2pz       32
  107     Mg_a     2pz       35
  108     Mg_a     2pz       38
  109     Mg_a     2pz       41
  110     Mg_a     4f0       85
  111     Mg_a     4f2+      87
  112     Mg_a     4f0       92
  113     Mg_a     4f2+      94
  114     Mg_a     4f0       99
  115     Mg_a     4f2+     101
  116     Mg_a     4f0      106
  117     Mg_a     4f2+     108
  118     Mg_a     4f0      113
  119     Mg_a     4f2+     115
  120     Mg_a     4f0      120
  121     Mg_a     4f2+     122


  Symmetry  B2g( 6)

  122     Mg_a     3d1+      45
  123     Mg_a     3d1+      50
  124     Mg_a     3d1+      55
  125     Mg_a     3d1+      60
  126     Mg_a     3d1+      65
  127     Mg_a     3d1+      70
  128     Mg_a     3d1+      75
  129     Mg_a     3d1+      80
  130     Mg_a     5g1+     129
  131     Mg_a     5g3+     131
  132     Mg_a     5g1+     138
  133     Mg_a     5g3+     140
  134     Mg_a     5g1+     147
  135     Mg_a     5g3+     149
  136     Mg_a     5g1+     156
  137     Mg_a     5g3+     158


  Symmetry  B3g( 7)

  138     Mg_a     3d1-      43
  139     Mg_a     3d1-      48
  140     Mg_a     3d1-      53
  141     Mg_a     3d1-      58
  142     Mg_a     3d1-      63
  143     Mg_a     3d1-      68
  144     Mg_a     3d1-      73
  145     Mg_a     3d1-      78
  146     Mg_a     5g3-     125
  147     Mg_a     5g1-     127
  148     Mg_a     5g3-     134
  149     Mg_a     5g1-     136
  150     Mg_a     5g3-     143
  151     Mg_a     5g1-     145
  152     Mg_a     5g3-     152
  153     Mg_a     5g1-     154


  Symmetry  Au ( 8)

  154     Mg_a     4f2-      83
  155     Mg_a     4f2-      90
  156     Mg_a     4f2-      97
  157     Mg_a     4f2-     104
  158     Mg_a     4f2-     111
  159     Mg_a     4f2-     118

  Symmetries of electric field:  B3u(2)  B2u(3)  B1u(5)

  Symmetries of magnetic field:  B3g(7)  B2g(6)  B1g(4)


                     .---------------------------------------.
                     | Starting in Integral Section (HERMIT) |
                     `---------------------------------------'



 ***************************************************************************************
 ****************** Output from **INTEGRALS input processing (HERMIT) ******************
 ***************************************************************************************


 - Using defaults, no **INTEGRALS input found

 Default print level:        1

 Calculation of one-electron Hamiltonian integrals.

 Center of mass  (bohr):      0.000000000000      0.000000000000      0.000000000000
 Operator center (bohr):      0.000000000000      0.000000000000      0.000000000000
 Gauge origin    (bohr):      0.000000000000      0.000000000000      0.000000000000
 Dipole origin   (bohr):      0.000000000000      0.000000000000      0.000000000000


     ************************************************************************
     ************************** Output from HERINT **************************
     ************************************************************************



                      Nuclear contribution to dipole moments
                      --------------------------------------

                    All dipole components are zero by symmetry


  Time used in GABGEN     is       0.68 seconds
  Total CPU  time used in HERMIT:   0.84 seconds
  Total wall time used in HERMIT:   0.85 seconds


                        .----------------------------------.
                        | End of Integral Section (HERMIT) |
                        `----------------------------------'



                   .--------------------------------------------.
                   | Starting in Wave Function Section (SIRIUS) |
                   `--------------------------------------------'


 *** Output from Huckel module :

     Using EWMO model:          T
     Using EHT  model:          F
     Number of Huckel orbitals each symmetry:    3    2    2    0    2    0    0    0

 EWMO - Energy Weighted Maximum Overlap - is a Huckel type method,
        which normally is better than Extended Huckel Theory.
 Reference: Linderberg and Ohrn, Propagators in Quantum Chemistry (Wiley, 1973)

 Huckel EWMO eigenvalues for symmetry :  1
          -49.031700      -3.767700      -0.253100

 Huckel EWMO eigenvalues for symmetry :  2
           -2.282200      -0.157000

 Huckel EWMO eigenvalues for symmetry :  3
           -2.282200      -0.157000

 Huckel EWMO eigenvalues for symmetry :  5
           -2.282200      -0.157000

 **********************************************************************
 *SIRIUS* a direct, restricted step, second order MCSCF program       *
 **********************************************************************

 
     Date and time (Linux)  : Wed Jan 11 15:39:08 2023
     Host name              : cn036                                   

 Title lines from ".mol" input file:
     blah                                                                    
     blah                                                                    

 Print level on unit LUPRI =   2 is   0
 Print level on unit LUW4  =   2 is   5

@    Restricted, closed shell Hartree-Fock calculation.

@    Time-dependent Hartree-Fock calculation (random phase approximation).
 Fock matrices are calculated directly and in parallel without use of integrals on disk.

 Initial molecular orbitals are obtained according to
 ".MOSTART EWMO  " input option

     Wave function specification
     ============================
@    Wave function type        --- HF ---
@    Number of closed shell electrons          12
@    Number of electrons in active shells       0
@    Total charge of the molecule               0

@    Spin multiplicity and 2 M_S                1         0
@    Total number of symmetries                 8 (point group: D2h)
@    Reference state symmetry                   1 (irrep name : Ag )

     Orbital specifications
     ======================
@    Abelian symmetry species          All |    1    2    3    4    5    6    7    8
@                                          |  Ag   B3u  B2u  B1g  B1u  B2g  B3g  Au 
                                       --- |  ---  ---  ---  ---  ---  ---  ---  ---
@    Total number of orbitals          159 |   39   22   22   16   22   16   16    6
@    Number of basis functions         159 |   39   22   22   16   22   16   16    6

      ** Automatic occupation of RHF orbitals **

      -- Initial occupation of symmetries is determined from extended Huckel guess.           
      -- Initial occupation of symmetries is :
@    Occupied SCF orbitals               6 |    3    1    1    0    1    0    0    0

     Maximum number of Fock   iterations      0
     Maximum number of DIIS   iterations     60
     Maximum number of QC-SCF iterations     60
     Threshold for SCF convergence     1.00D-05


 ***********************************************
 ***** DIIS acceleration of SCF iterations *****
 ***********************************************

 C1-DIIS algorithm; max error vectors =    8

 Automatic occupation of symmetries with  12 electrons.

 Iter     Total energy    Error norm  Delta(E)    SCF occupation
 -----------------------------------------------------------------------------
   1  Screening settings (-IFTHRS, JTDIIS, DIFDEN, times)   -7    1    T  1.60D-01  1.61D-01
@  1  -199.612241984       3.09D-01  -2.00D+02     3   1   1   0   1   0   0   0
      Virial theorem: -V/T =      1.999287
@    MULPOP   Mg_a   -0.00; 
   1  Level shift: doubly occupied orbital energies shifted by -2.00D-01
 -----------------------------------------------------------------------------
   2  Screening settings (-IFTHRS, JTDIIS, DIFDEN, times)  -11    2    F  1.39D-01  1.40D-01
@  2  -199.613808382       3.73D-02  -1.57D-03     3   1   1   0   1   0   0   0
      Virial theorem: -V/T =      1.999993
@    MULPOP   Mg_a   -0.00; 
   2  Level shift: doubly occupied orbital energies shifted by -5.00D-02
 -----------------------------------------------------------------------------
   3  Screening settings (-IFTHRS, JTDIIS, DIFDEN, times)  -11    3    T  1.40D-01  1.40D-01
@  3  -199.614166904       1.24D-02  -3.59D-04     3   1   1   0   1   0   0   0
      Virial theorem: -V/T =      1.999916
@    MULPOP   Mg_a    0.00; 
   3  Level shift: doubly occupied orbital energies shifted by -2.50D-02
 -----------------------------------------------------------------------------
   4  Screening settings (-IFTHRS, JTDIIS, DIFDEN, times)  -11    4    T  1.41D-01  1.40D-01
@  4  -199.614227692       4.18D-03  -6.08D-05     3   1   1   0   1   0   0   0
      Virial theorem: -V/T =      2.000010
@    MULPOP   Mg_a   -0.00; 
   4  Level shift: doubly occupied orbital energies shifted by -1.25D-02
 -----------------------------------------------------------------------------
   5  Screening settings (-IFTHRS, JTDIIS, DIFDEN, times)  -11    5    T  1.40D-01  1.41D-01
@  5  -199.614234435       7.43D-04  -6.74D-06     3   1   1   0   1   0   0   0
      Virial theorem: -V/T =      2.000000
@    MULPOP   Mg_a    0.00; 
 -----------------------------------------------------------------------------
   6  Screening settings (-IFTHRS, JTDIIS, DIFDEN, times)  -11    6    T  1.38D-01  1.38D-01
@  6  -199.614234617       1.09D-04  -1.83D-07     3   1   1   0   1   0   0   0
      Virial theorem: -V/T =      2.000006
@    MULPOP   Mg_a    0.00; 
 -----------------------------------------------------------------------------
   7  Screening settings (-IFTHRS, JTDIIS, DIFDEN, times)  -11    7    T  1.38D-01  1.38D-01
@  7  -199.614234622       9.12D-06  -4.33D-09     3   1   1   0   1   0   0   0

@ *** DIIS converged in   7 iterations !
@     Converged SCF energy, gradient:   -199.614234621721    9.12D-06
    - total time used in SIRFCK :              0.00 seconds


 *** SCF orbital energy analysis ***

 Only the 20 lowest virtual orbital energies printed in each symmetry.

 Number of electrons :   12
 Orbital occupations :    3    1    1    0    1    0    0    0

 Sym       Hartree-Fock orbital energies

1 Ag    -49.03181611    -3.76775239    -0.25305303     0.00847170     0.04348678
          0.04348678     0.04574712     0.14123318     0.14123318     0.16587798
          0.35021858     0.35021858     0.35021858     0.35600859     0.35600859
          0.53798887     0.80390209     0.80390209     0.89119788     0.89119788
          0.89119788     1.62417930     1.62417930

2 B3u    -2.28222864     0.00464798     0.01716590     0.04610730     0.11237110
          0.11237110     0.13805779     0.33717355     0.33717355     0.39377706
          0.85359590     0.85359590     1.07481037     1.93336283     1.93336283
          5.06007782     9.86353721     9.86353721    22.91329703    32.92259245
         32.92259245

3 B2u    -2.28222864     0.00464798     0.01716590     0.04610730     0.11237110
          0.11237110     0.13805779     0.33717355     0.33717355     0.39377706
          0.85359590     0.85359590     1.07481037     1.93336283     1.93336283
          5.06007782     9.86353721     9.86353721    22.91329703    32.92259245
         32.92259245

4 B1g     0.04348678     0.14123318     0.35021858     0.35021858     0.35600859
          0.80390209     0.89119788     0.89119788     1.62417930     2.00162459
          2.00162459     4.52060367    14.13072548    25.47531239    25.47531239
         42.16726496

5 B1u    -2.28222864     0.00464798     0.01716590     0.04610730     0.11237110
          0.11237110     0.13805779     0.33717355     0.33717355     0.39377706
          0.85359590     0.85359590     1.07481037     1.93336283     1.93336283
          5.06007782     9.86353721     9.86353721    22.91329703    32.92259245
         32.92259245

6 B2g     0.04348678     0.14123318     0.35021858     0.35021858     0.35600859
          0.80390209     0.89119788     0.89119788     1.62417930     2.00162459
          2.00162459     4.52060367    14.13072548    25.47531239    25.47531239
         42.16726496

7 B3g     0.04348678     0.14123318     0.35021858     0.35021858     0.35600859
          0.80390209     0.89119788     0.89119788     1.62417930     2.00162459
          2.00162459     4.52060367    14.13072548    25.47531239    25.47531239
         42.16726496

8 Au      0.11237110     0.33717355     0.85359590     1.93336283     9.86353721
         32.92259245

    E(LUMO) :     0.00464798 au (symmetry 5)
  - E(HOMO) :    -0.25305303 au (symmetry 1)
  ------------------------------------------
    gap     :     0.25770101 au

 --- Writing SIRIFC interface file

 CPU and wall time for SCF :       1.009       1.012


                       .-----------------------------------.
                       | --- Final results from SIRIUS --- |
                       `-----------------------------------'


@    Spin multiplicity:           1
@    Spatial symmetry:            1 ( irrep  Ag  in D2h )
@    Total charge of molecule:    0

@    Final HF energy:            -199.614234621721                 
@    Nuclear repulsion:             0.000000000000
@    Electronic energy:          -199.614234621721

@    Final gradient norm:           0.000009121894

 
     Date and time (Linux)  : Wed Jan 11 15:39:09 2023
     Host name              : cn036                                   

File label for MO orbitals:  11Jan23   FOCKDIIS

 (Only coefficients > 0.0100 are printed.)

 Molecular orbitals for symmetry species 1  (Ag )
 ------------------------------------------------

    Orbital         1        2        3        4        5        6        7
   1 Mg_a:1s     1.0000  -0.0002  -0.0000   0.0050  -0.0000   0.0000  -0.0189
   2 Mg_a:1s     0.0000  -0.9963  -0.0002   0.0383  -0.0000   0.0000  -0.1515
   3 Mg_a:1s    -0.0000  -0.0016   0.3731   0.0055  -0.0000   0.0000  -0.2629
   4 Mg_a:1s    -0.0005  -0.0169   0.3239   0.0519   0.0000  -0.0000  -0.4058
   5 Mg_a:1s     0.0005   0.0112   0.5535  -0.3448  -0.0000   0.0000   0.9555
   6 Mg_a:1s    -0.0003  -0.0055   0.2598   0.5504   0.0000  -0.0000  -3.0028
   9 Mg_a:1s    -0.0000   0.0003   0.0000  -0.0053   0.0000  -0.0000   0.0196
  10 Mg_a:1s     0.0001   0.0021  -0.0012  -1.4853  -0.0000   0.0000   4.3870
  11 Mg_a:1s    -0.0000  -0.0006   0.0019   1.9090   0.0000  -0.0000  -1.9451
  18 Mg_a:3d0   -0.0000  -0.0000   0.0000   0.0000  -0.0321  -0.0000   0.0000
  19 Mg_a:3d2+   0.0000   0.0000   0.0000  -0.0000   0.0000  -0.0321  -0.0000
  20 Mg_a:3d0    0.0000   0.0000   0.0000  -0.0000   0.0989   0.0000  -0.0000
  21 Mg_a:3d2+  -0.0000  -0.0000  -0.0000   0.0000  -0.0000   0.0989   0.0000
  22 Mg_a:3d0   -0.0000  -0.0000  -0.0000   0.0000  -0.1690  -0.0000   0.0000
  23 Mg_a:3d2+   0.0000   0.0000   0.0000  -0.0000   0.0000  -0.1690  -0.0000
  24 Mg_a:3d0    0.0000   0.0000   0.0000  -0.0000   0.3248   0.0000  -0.0000
  25 Mg_a:3d2+  -0.0000  -0.0000  -0.0000   0.0000  -0.0000   0.3248   0.0000
  26 Mg_a:3d0   -0.0000  -0.0000  -0.0000   0.0000  -1.1662   0.0000   0.0000
  27 Mg_a:3d2+   0.0000   0.0000   0.0000  -0.0000   0.0000  -1.1662  -0.0000

    Orbital         8        9       10       11       12       13
   1 Mg_a:1s     0.0000  -0.0000   0.0612  -0.0000  -0.0000   0.0000
   2 Mg_a:1s     0.0000  -0.0000   0.4693   0.0000   0.0000  -0.0000
   3 Mg_a:1s     0.0000  -0.0000   0.2851   0.0000   0.0000  -0.0000
   4 Mg_a:1s    -0.0000   0.0000   0.9976   0.0000   0.0000  -0.0000
   5 Mg_a:1s     0.0000  -0.0000  -4.9599  -0.0000  -0.0000   0.0000
   6 Mg_a:1s    -0.0000   0.0000   6.8152   0.0000   0.0000  -0.0000
   7 Mg_a:1s    -0.0000  -0.0000   0.0152  -0.0000  -0.0000   0.0000
   8 Mg_a:1s    -0.0000  -0.0000   0.0129  -0.0000  -0.0000   0.0000
   9 Mg_a:1s     0.0000   0.0000  -0.0643   0.0000   0.0000  -0.0000
  10 Mg_a:1s     0.0000  -0.0000  -4.0492  -0.0000  -0.0000   0.0000
  11 Mg_a:1s    -0.0000   0.0000   1.1896   0.0000   0.0000  -0.0000
  18 Mg_a:3d0   -0.0751  -0.0000   0.0000   0.0000   0.0000   0.0000
  19 Mg_a:3d2+  -0.0000  -0.0751  -0.0000   0.0000  -0.0000   0.0000
  20 Mg_a:3d0    0.3288   0.0000  -0.0000   0.0000   0.0000  -0.0000
  21 Mg_a:3d2+   0.0000   0.3288   0.0000  -0.0000   0.0000  -0.0000
  22 Mg_a:3d0   -0.4813  -0.0000   0.0000  -0.0000  -0.0000   0.0000
  23 Mg_a:3d2+  -0.0000  -0.4813  -0.0000   0.0000  -0.0000   0.0000
  24 Mg_a:3d0    1.5484  -0.0000  -0.0000   0.0000   0.0000  -0.0000
  25 Mg_a:3d2+   0.0000   1.5484   0.0000  -0.0000   0.0000  -0.0000
  26 Mg_a:3d0   -0.7517   0.0000   0.0000   0.0000   0.0000  -0.0000
  27 Mg_a:3d2+  -0.0000  -0.7517  -0.0000  -0.0000  -0.0000   0.0000
  31 Mg_a:5g0   -0.0000   0.0000  -0.0000   0.0000   0.0000  -0.1128
  32 Mg_a:5g2+   0.0000   0.0000   0.0000  -0.1128   0.0000  -0.0000
  33 Mg_a:5g4+  -0.0000   0.0000  -0.0000  -0.0000   0.1128  -0.0000
  34 Mg_a:5g0    0.0000  -0.0000   0.0000  -0.0000  -0.0000   0.4473
  35 Mg_a:5g2+  -0.0000  -0.0000  -0.0000   0.4473  -0.0000   0.0000
  36 Mg_a:5g4+   0.0000  -0.0000   0.0000   0.0000  -0.4473   0.0000
  37 Mg_a:5g0   -0.0000   0.0000  -0.0000   0.0000   0.0000  -1.2519
  38 Mg_a:5g2+   0.0000  -0.0000   0.0000  -1.2519   0.0000  -0.0000
  39 Mg_a:5g4+  -0.0000   0.0000  -0.0000  -0.0000   1.2519   0.0000

 Molecular orbitals for symmetry species 2  (B3u)
 ------------------------------------------------

    Orbital         1        2        3        4        5        6        7
   1 Mg_a:2px    0.9985  -0.0112   0.0163   0.1095   0.0000  -0.0000  -0.3053
   2 Mg_a:2px   -0.0002  -0.0032   0.0551   0.0274  -0.0000  -0.0000  -0.4132
   3 Mg_a:2px    0.0072   0.0314   0.0055  -0.3275   0.0000   0.0000   0.5295
   4 Mg_a:2px   -0.0018  -0.0275   0.2348   0.3110  -0.0000  -0.0000  -2.4426
   5 Mg_a:2px    0.0007   0.1075  -0.1395  -1.4843   0.0000   0.0000   2.4701
   9 Mg_a:2px   -0.0002  -0.2161   1.2947   1.3342  -0.0000  -0.0000  -0.9362
  10 Mg_a:2px    0.0001   1.1099  -0.7361  -0.4720  -0.0000   0.0000   0.2773
  15 Mg_a:4f1+  -0.0000   0.0000   0.0000  -0.0000   0.0309   0.0000  -0.0000
  16 Mg_a:4f3+  -0.0000   0.0000   0.0000  -0.0000   0.0000   0.0309   0.0000
  17 Mg_a:4f1+   0.0000  -0.0000  -0.0000   0.0000  -0.0976  -0.0000   0.0000
  18 Mg_a:4f3+   0.0000  -0.0000  -0.0000   0.0000  -0.0000  -0.0976   0.0000
  19 Mg_a:4f1+   0.0000   0.0000   0.0000   0.0000   0.2914  -0.0000   0.0000
  20 Mg_a:4f3+  -0.0000   0.0000   0.0000  -0.0000   0.0000   0.2914  -0.0000
  21 Mg_a:4f1+  -0.0000   0.0000   0.0000  -0.0000  -1.1467   0.0000  -0.0000
  22 Mg_a:4f3+   0.0000  -0.0000  -0.0000   0.0000  -0.0000  -1.1467   0.0000

    Orbital         8        9       10       11
   1 Mg_a:2px    0.0000  -0.0000  -1.0320   0.0000
   2 Mg_a:2px    0.0000   0.0000  -0.7972   0.0000
   3 Mg_a:2px   -0.0000  -0.0000   3.0419  -0.0000
   4 Mg_a:2px    0.0000   0.0000  -3.6821   0.0000
   5 Mg_a:2px   -0.0000  -0.0000   1.8710  -0.0000
   8 Mg_a:2px   -0.0000   0.0000  -0.0128  -0.0000
   9 Mg_a:2px    0.0000   0.0000  -0.5280   0.0000
  10 Mg_a:2px   -0.0000  -0.0000   0.1527  -0.0000
  15 Mg_a:4f1+   0.1115  -0.0000  -0.0000   0.0000
  16 Mg_a:4f3+   0.0000   0.1115   0.0000  -0.3350
  17 Mg_a:4f1+  -0.3214  -0.0000   0.0000  -0.0000
  18 Mg_a:4f3+  -0.0000  -0.3214  -0.0000   1.6469
  19 Mg_a:4f1+   1.4485   0.0000  -0.0000  -0.0000
  20 Mg_a:4f3+   0.0000   1.4485   0.0000  -1.0097
  21 Mg_a:4f1+  -0.6568  -0.0000   0.0000   0.0000
  22 Mg_a:4f3+  -0.0000  -0.6568  -0.0000   0.3371

 Molecular orbitals for symmetry species 3  (B2u)
 ------------------------------------------------

    Orbital         1        2        3        4        5        6        7
   1 Mg_a:2py    0.9985  -0.0112   0.0163   0.1095  -0.0000  -0.0000  -0.3053
   2 Mg_a:2py   -0.0002  -0.0032   0.0551   0.0274  -0.0000   0.0000  -0.4132
   3 Mg_a:2py    0.0072   0.0314   0.0055  -0.3275   0.0000  -0.0000   0.5295
   4 Mg_a:2py   -0.0018  -0.0275   0.2348   0.3110  -0.0000   0.0000  -2.4426
   5 Mg_a:2py    0.0007   0.1075  -0.1395  -1.4843   0.0000   0.0000   2.4701
   9 Mg_a:2py   -0.0002  -0.2161   1.2947   1.3342  -0.0000  -0.0000  -0.9362
  10 Mg_a:2py    0.0001   1.1099  -0.7361  -0.4720   0.0000   0.0000   0.2773
  15 Mg_a:4f3-   0.0000  -0.0000  -0.0000  -0.0000  -0.0000   0.0309  -0.0000
  16 Mg_a:4f1-  -0.0000  -0.0000  -0.0000   0.0000   0.0309   0.0000   0.0000
  17 Mg_a:4f3-  -0.0000   0.0000  -0.0000   0.0000   0.0000  -0.0976   0.0000
  18 Mg_a:4f1-   0.0000   0.0000   0.0000  -0.0000  -0.0976  -0.0000  -0.0000
  19 Mg_a:4f3-   0.0000   0.0000   0.0000  -0.0000  -0.0000   0.2914  -0.0000
  20 Mg_a:4f1-  -0.0000   0.0000   0.0000  -0.0000   0.2914   0.0000  -0.0000
  21 Mg_a:4f3-  -0.0000  -0.0000  -0.0000   0.0000   0.0000  -1.1467   0.0000
  22 Mg_a:4f1-   0.0000  -0.0000  -0.0000   0.0000  -1.1467   0.0000   0.0000

    Orbital         8        9       10       11
   1 Mg_a:2py   -0.0000  -0.0000  -1.0320   0.0000
   2 Mg_a:2py   -0.0000  -0.0000  -0.7972  -0.0000
   3 Mg_a:2py   -0.0000   0.0000   3.0419   0.0000
   4 Mg_a:2py    0.0000  -0.0000  -3.6821  -0.0000
   5 Mg_a:2py    0.0000   0.0000   1.8710   0.0000
   8 Mg_a:2py    0.0000   0.0000  -0.0128  -0.0000
   9 Mg_a:2py   -0.0000  -0.0000  -0.5280  -0.0000
  10 Mg_a:2py    0.0000   0.0000   0.1527   0.0000
  15 Mg_a:4f3-  -0.0000   0.1115   0.0000  -0.3350
  16 Mg_a:4f1-   0.1115  -0.0000  -0.0000   0.0000
  17 Mg_a:4f3-   0.0000  -0.3214  -0.0000   1.6469
  18 Mg_a:4f1-  -0.3214   0.0000   0.0000  -0.0000
  19 Mg_a:4f3-  -0.0000   1.4485   0.0000  -1.0097
  20 Mg_a:4f1-   1.4485  -0.0000   0.0000  -0.0000
  21 Mg_a:4f3-   0.0000  -0.6568  -0.0000   0.3371
  22 Mg_a:4f1-  -0.6568  -0.0000  -0.0000   0.0000

 Molecular orbitals for symmetry species 4  (B1g)
 ------------------------------------------------

    Orbital         1        2        3        4        5        6        7
   3 Mg_a:3d2-   0.0013   0.0089   0.0000   0.0000   0.0001  -0.0822   0.0000
   4 Mg_a:3d2-  -0.0321  -0.0751   0.0000   0.0000  -0.3614   0.4461   0.0000
   5 Mg_a:3d2-   0.0989   0.3288   0.0000   0.0000   0.9871  -2.9226   0.0000
   6 Mg_a:3d2-  -0.1690  -0.4813   0.0000   0.0000  -2.1809   2.6891   0.0000
   7 Mg_a:3d2-   0.3248   1.5484   0.0000   0.0000   1.3128  -0.8990   0.0000
   8 Mg_a:3d2-  -1.1662  -0.7517   0.0000   0.0000  -0.4309   0.2636   0.0000
  11 Mg_a:5g4-   0.0000   0.0000   0.0000  -0.1128   0.0000   0.0000  -0.3089
  12 Mg_a:5g2-   0.0000   0.0000   0.1128   0.0000   0.0000   0.0000   0.0000
  13 Mg_a:5g4-   0.0000   0.0000   0.0000   0.4473   0.0000   0.0000   1.6389
  14 Mg_a:5g2-   0.0000   0.0000  -0.4473   0.0000   0.0000   0.0000   0.0000
  15 Mg_a:5g4-   0.0000   0.0000   0.0000  -1.2519   0.0000   0.0000  -0.8174
  16 Mg_a:5g2-   0.0000   0.0000   1.2519   0.0000   0.0000   0.0000   0.0000

    Orbital         8        9       10
   2 Mg_a:3d2-   0.0000   0.0333   0.0000
   3 Mg_a:3d2-   0.0000   0.0591   0.0000
   4 Mg_a:3d2-   0.0000   2.7124   0.0000
   5 Mg_a:3d2-   0.0000  -4.1515   0.0000
   6 Mg_a:3d2-   0.0000   2.3392   0.0000
   7 Mg_a:3d2-   0.0000  -0.6026   0.0000
   8 Mg_a:3d2-   0.0000   0.1712   0.0000
  11 Mg_a:5g4-   0.0000   0.0000   1.5294
  12 Mg_a:5g2-  -0.3089   0.0000   0.0000
  13 Mg_a:5g4-   0.0000   0.0000  -1.2558
  14 Mg_a:5g2-   1.6389   0.0000   0.0000
  15 Mg_a:5g4-   0.0000   0.0000   0.4599
  16 Mg_a:5g2-  -0.8174   0.0000   0.0000

 Molecular orbitals for symmetry species 5  (B1u)
 ------------------------------------------------

    Orbital         1        2        3        4        5        6        7
   1 Mg_a:2pz    0.9985  -0.0112   0.0163   0.1095   0.0000   0.0000  -0.3053
   2 Mg_a:2pz   -0.0002  -0.0032   0.0551   0.0274  -0.0000  -0.0000  -0.4132
   3 Mg_a:2pz    0.0072   0.0314   0.0055  -0.3275   0.0000   0.0000   0.5295
   4 Mg_a:2pz   -0.0018  -0.0275   0.2348   0.3110  -0.0000  -0.0000  -2.4426
   5 Mg_a:2pz    0.0007   0.1075  -0.1395  -1.4843   0.0000   0.0000   2.4701
   9 Mg_a:2pz   -0.0002  -0.2161   1.2947   1.3342  -0.0000   0.0000  -0.9362
  10 Mg_a:2pz    0.0001   1.1099  -0.7361  -0.4720   0.0000  -0.0000   0.2773
  15 Mg_a:4f0   -0.0000  -0.0000  -0.0000   0.0000   0.0309   0.0000   0.0000
  16 Mg_a:4f2+   0.0000   0.0000   0.0000  -0.0000  -0.0000   0.0309  -0.0000
  17 Mg_a:4f0    0.0000  -0.0000  -0.0000   0.0000  -0.0976  -0.0000  -0.0000
  18 Mg_a:4f2+  -0.0000   0.0000   0.0000  -0.0000   0.0000  -0.0976  -0.0000
  19 Mg_a:4f0   -0.0000  -0.0000  -0.0000   0.0000   0.2914   0.0000   0.0000
  20 Mg_a:4f2+   0.0000  -0.0000  -0.0000   0.0000  -0.0000   0.2914   0.0000
  21 Mg_a:4f0    0.0000   0.0000   0.0000  -0.0000  -1.1467  -0.0000  -0.0000
  22 Mg_a:4f2+  -0.0000   0.0000   0.0000  -0.0000   0.0000  -1.1467  -0.0000

    Orbital         8        9       10       11
   1 Mg_a:2pz    0.0000   0.0000  -1.0320  -0.0000
   2 Mg_a:2pz    0.0000   0.0000  -0.7972   0.0000
   3 Mg_a:2pz   -0.0000  -0.0000   3.0419  -0.0000
   4 Mg_a:2pz    0.0000   0.0000  -3.6821   0.0000
   5 Mg_a:2pz   -0.0000  -0.0000   1.8710   0.0000
   8 Mg_a:2pz   -0.0000  -0.0000  -0.0128   0.0000
   9 Mg_a:2pz    0.0000   0.0000  -0.5280  -0.0000
  10 Mg_a:2pz   -0.0000  -0.0000   0.1527   0.0000
  15 Mg_a:4f0   -0.0000   0.1115  -0.0000   0.0000
  16 Mg_a:4f2+   0.1115  -0.0000  -0.0000  -0.3350
  17 Mg_a:4f0    0.0000  -0.3214   0.0000  -0.0000
  18 Mg_a:4f2+  -0.3214   0.0000   0.0000   1.6469
  19 Mg_a:4f0   -0.0000   1.4485  -0.0000   0.0000
  20 Mg_a:4f2+   1.4485  -0.0000  -0.0000  -1.0097
  21 Mg_a:4f0    0.0000  -0.6568   0.0000  -0.0000
  22 Mg_a:4f2+  -0.6568   0.0000   0.0000   0.3371

 Molecular orbitals for symmetry species 6  (B2g)
 ------------------------------------------------

    Orbital         1        2        3        4        5        6        7
   3 Mg_a:3d1+   0.0013   0.0089   0.0000   0.0000   0.0001  -0.0822   0.0000
   4 Mg_a:3d1+  -0.0321  -0.0751   0.0000   0.0000  -0.3614   0.4461   0.0000
   5 Mg_a:3d1+   0.0989   0.3288   0.0000   0.0000   0.9871  -2.9226   0.0000
   6 Mg_a:3d1+  -0.1690  -0.4813   0.0000   0.0000  -2.1809   2.6891   0.0000
   7 Mg_a:3d1+   0.3248   1.5484   0.0000   0.0000   1.3128  -0.8990   0.0000
   8 Mg_a:3d1+  -1.1662  -0.7517   0.0000   0.0000  -0.4309   0.2636   0.0000
  11 Mg_a:5g1+   0.0000   0.0000   0.0000  -0.1128   0.0000   0.0000   0.0000
  12 Mg_a:5g3+   0.0000   0.0000   0.1128   0.0000   0.0000   0.0000  -0.3089
  13 Mg_a:5g1+   0.0000   0.0000   0.0000   0.4473   0.0000   0.0000   0.0000
  14 Mg_a:5g3+   0.0000   0.0000  -0.4473   0.0000   0.0000   0.0000   1.6389
  15 Mg_a:5g1+   0.0000   0.0000   0.0000  -1.2519   0.0000   0.0000   0.0000
  16 Mg_a:5g3+   0.0000   0.0000   1.2519   0.0000   0.0000   0.0000  -0.8174

    Orbital         8        9       10
   2 Mg_a:3d1+   0.0000   0.0333   0.0000
   3 Mg_a:3d1+   0.0000   0.0591   0.0000
   4 Mg_a:3d1+   0.0000   2.7124   0.0000
   5 Mg_a:3d1+   0.0000  -4.1515   0.0000
   6 Mg_a:3d1+   0.0000   2.3392   0.0000
   7 Mg_a:3d1+   0.0000  -0.6026   0.0000
   8 Mg_a:3d1+   0.0000   0.1712   0.0000
  11 Mg_a:5g1+  -0.3089   0.0000   1.5294
  13 Mg_a:5g1+   1.6389   0.0000  -1.2558
  15 Mg_a:5g1+  -0.8174   0.0000   0.4599

 Molecular orbitals for symmetry species 7  (B3g)
 ------------------------------------------------

    Orbital         1        2        3        4        5        6        7
   3 Mg_a:3d1-   0.0013   0.0089   0.0000   0.0000   0.0001  -0.0822   0.0000
   4 Mg_a:3d1-  -0.0321  -0.0751   0.0000   0.0000  -0.3614   0.4461   0.0000
   5 Mg_a:3d1-   0.0989   0.3288   0.0000   0.0000   0.9871  -2.9226   0.0000
   6 Mg_a:3d1-  -0.1690  -0.4813   0.0000   0.0000  -2.1809   2.6891   0.0000
   7 Mg_a:3d1-   0.3248   1.5484   0.0000   0.0000   1.3128  -0.8990   0.0000
   8 Mg_a:3d1-  -1.1662  -0.7517   0.0000   0.0000  -0.4309   0.2636   0.0000
  11 Mg_a:5g3-   0.0000   0.0000  -0.1128   0.0000   0.0000   0.0000  -0.3089
  12 Mg_a:5g1-   0.0000   0.0000   0.0000  -0.1128   0.0000   0.0000   0.0000
  13 Mg_a:5g3-   0.0000   0.0000   0.4473   0.0000   0.0000   0.0000   1.6389
  14 Mg_a:5g1-   0.0000   0.0000   0.0000   0.4473   0.0000   0.0000   0.0000
  15 Mg_a:5g3-   0.0000   0.0000  -1.2519   0.0000   0.0000   0.0000  -0.8174
  16 Mg_a:5g1-   0.0000   0.0000   0.0000  -1.2519   0.0000   0.0000   0.0000

    Orbital         8        9       10
   2 Mg_a:3d1-   0.0000   0.0333   0.0000
   3 Mg_a:3d1-   0.0000   0.0591   0.0000
   4 Mg_a:3d1-   0.0000   2.7124   0.0000
   5 Mg_a:3d1-   0.0000  -4.1515   0.0000
   6 Mg_a:3d1-   0.0000   2.3392   0.0000
   7 Mg_a:3d1-   0.0000  -0.6026   0.0000
   8 Mg_a:3d1-   0.0000   0.1712   0.0000
  12 Mg_a:5g1-  -0.3089   0.0000   1.5294
  14 Mg_a:5g1-   1.6389   0.0000  -1.2558
  16 Mg_a:5g1-  -0.8174   0.0000   0.4599

 Molecular orbitals for symmetry species 8  (Au )
 ------------------------------------------------

    Orbital         1        2        3        4        5        6
   1 Mg_a:4f2-   0.0002   0.0004   0.0017   0.0019  -0.1134   1.2094
   2 Mg_a:4f2-  -0.0006  -0.0013  -0.0079   0.0042   1.0762  -0.6017
   3 Mg_a:4f2-   0.0309   0.1115   0.3350   1.7528  -0.3251   0.1242
   4 Mg_a:4f2-  -0.0976  -0.3214  -1.6469  -1.5660   0.2670  -0.1026
   5 Mg_a:4f2-   0.2914   1.4485   1.0097   0.6012  -0.1077   0.0421
   6 Mg_a:4f2-  -1.1467  -0.6568  -0.3371  -0.1887   0.0361  -0.0143

  Total CPU  time used in SIRIUS :   1.02 seconds
  Total wall time used in SIRIUS :   1.03 seconds

 
     Date and time (Linux)  : Wed Jan 11 15:39:09 2023
     Host name              : cn036                                   


                     .---------------------------------------.
                     | End of Wave Function Section (SIRIUS) |
                     `---------------------------------------'



                 .------------------------------------------------.
                 | Starting in Dynamic Property Section (RESPONS) |
                 `------------------------------------------------'


 ----------------------------------------------------------------------------------------
  RESPONSE  -  an MCSCF, MC-srDFT, DFT, SOPPA and SOPPA-srDFT response property program
 ----------------------------------------------------------------------------------------


 -------- OUTPUT FROM RESPONSE INPUT PROCESSING --------




 Linear Response calculation
 ---------------------------

 Print level                                    : IPRLR  =   2
 Maximum number of iterations                   : MAXITL =  60
 Threshold for relative convergence             : THCLR  = 1.000D-03
 Maximum iterations in optimal orbital algorithm: MAXITO =   5

  9 B-frequencies  0.000000D+00  9.319375D-03  1.863875D-02  2.795813D-02  3.727750D-02
  4.659687D-02  5.591625D-02  6.523562D-02  7.455500D-02

    1 second order properties calculated with symmetry no.    2 and labels:

          XDIPLEN 

    1 second order properties calculated with symmetry no.    3 and labels:

          YDIPLEN 

    1 second order properties calculated with symmetry no.    5 and labels:

          ZDIPLEN 


   SCF energy         :     -199.614234621721039
 -- inactive part     :     -199.614234621721039
 -- nuclear repulsion :        0.000000000000000


                     ***************************************
                     *** RHF response calculation (TDHF) ***
                     ***************************************

 ----------------------------------------------------------------
 ----- Linear response calculation
 ----- Symmetry of excitation/property operator(s)    2  ( B3u)
 ----------------------------------------------------------------

 Number of excitations of this symmetry            0
 Number of response properties of this symmetry    1
 Number of C6/C8 properties of this symmetry       0


 Perturbation symmetry.     KSYMOP:           2
 Perturbation spin symmetry.TRPLET:           F
 Orbital variables.         KZWOPT:         131
 Configuration variables.   KZCONF:           0
 Total number of variables. KZVAR :         131


 RSPLR -- linear response calculation for symmetry 2  ( B3u)
 RSPLR -- operator label : XDIPLEN 
 RSPLR -- operator spin  :   0
 RSPLR -- frequencies    :     0.000000  0.009319  0.018639  0.027958  0.037277
                               0.046597  0.055916  0.065236  0.074555



 ---  SOLVING SETS OF LINEAR EQUATIONS FOR LINEAR RESPONSE PROPERTIES ---

 Operator symmetry = 2  ( B3u); triplet =   F

RSPORT:    1 out of    9 new trial vectors linear dependent

 ** RSPCTL MICROITERATION NUMBER    1

       No.  Residual tot.,    conf., and orb.    Bnorm      Frequency 
      ----------------------------------------------------------------
         1    4.24258D-01  0.00D+00  4.24D-01  1.46D+01    0.00000D+00
         2    4.28694D-01  0.00D+00  4.29D-01  1.47D+01    9.31937D-03
         3    4.42103D-01  0.00D+00  4.42D-01  1.50D+01    1.86387D-02
         4    4.64819D-01  0.00D+00  4.65D-01  1.55D+01    2.79581D-02
         5    4.97505D-01  0.00D+00  4.98D-01  1.63D+01    3.72775D-02
         6    5.41311D-01  0.00D+00  5.41D-01  1.73D+01    4.65969D-02
         7    5.98125D-01  0.00D+00  5.98D-01  1.87D+01    5.59163D-02
         8    6.70964D-01  0.00D+00  6.71D-01  2.06D+01    6.52356D-02
         9    7.64641D-01  0.00D+00  7.65D-01  2.30D+01    7.45550D-02

 ** RSPCTL MICROITERATION NUMBER    2

       No.  Residual tot.,    conf., and orb.    Bnorm      Frequency 
      ----------------------------------------------------------------
         1    1.69155D-02  0.00D+00  1.69D-02  1.46D+01    0.00000D+00
         2    1.70831D-02  0.00D+00  1.71D-02  1.47D+01    9.31937D-03
         3    1.75919D-02  0.00D+00  1.76D-02  1.50D+01    1.86387D-02
         4    1.84616D-02  0.00D+00  1.85D-02  1.55D+01    2.79581D-02
         5    1.97283D-02  0.00D+00  1.97D-02  1.63D+01    3.72775D-02
         6    2.14507D-02  0.00D+00  2.15D-02  1.74D+01    4.65969D-02
         7    2.37198D-02  0.00D+00  2.37D-02  1.88D+01    5.59163D-02
         8    2.66760D-02  0.00D+00  2.67D-02  2.06D+01    6.52356D-02
         9    3.05381D-02  0.00D+00  3.05D-02  2.30D+01    7.45550D-02

 ** RSPCTL MICROITERATION NUMBER    3

       No.  Residual tot.,    conf., and orb.    Bnorm      Frequency 
      ----------------------------------------------------------------
         1    7.08870D-04  0.00D+00  7.09D-04  1.46D+01    0.00000D+00
         2    7.15466D-04  0.00D+00  7.15D-04  1.47D+01    9.31937D-03
         3    7.35455D-04  0.00D+00  7.35D-04  1.50D+01    1.86387D-02
         4    7.69474D-04  0.00D+00  7.69D-04  1.55D+01    2.79581D-02
         5    8.18725D-04  0.00D+00  8.19D-04  1.63D+01    3.72775D-02
         6    8.85203D-04  0.00D+00  8.85D-04  1.74D+01    4.65969D-02
         7    9.72061D-04  0.00D+00  9.72D-04  1.88D+01    5.59163D-02
         8    1.08422D-03  0.00D+00  1.08D-03  2.06D+01    6.52356D-02
         9    1.22946D-03  0.00D+00  1.23D-03  2.30D+01    7.45550D-02

 *** THE REQUESTED    9 SOLUTION VECTORS CONVERGED

 Convergence of RSP solution vectors, threshold = 1.00D-03
 ---------------------------------------------------------------
 (dimension of paired reduced space:   52)
 RSP solution vector no.    1; norm of residual   4.86D-05
 RSP solution vector no.    2; norm of residual   4.88D-05
 RSP solution vector no.    3; norm of residual   4.91D-05
 RSP solution vector no.    4; norm of residual   4.96D-05
 RSP solution vector no.    5; norm of residual   5.02D-05
 RSP solution vector no.    6; norm of residual   5.10D-05
 RSP solution vector no.    7; norm of residual   5.18D-05
 RSP solution vector no.    8; norm of residual   5.27D-05
 RSP solution vector no.    9; norm of residual   5.35D-05

 *** RSPCTL MICROITERATIONS CONVERGED


           Final output of second order properties from linear response
           ------------------------------------------------------------


@ Spin symmetry of operators: singlet

 Note that minus the linear response function: - << A; B >>(omega) is printed.
 The results are of quadratic accuracy using Sellers formula.

@ FREQUENCY INDEPENDENT SECOND ORDER PROPERTIES

@ -<< XDIPLEN  ; XDIPLEN  >> =  8.158130648938E+01

@ FREQUENCY DEPENDENT SECOND ORDER PROPERTIES WITH FREQUENCY :

@    a.u.:  9.3193750D-03
@    cm-1:  2.0453664D+03
@    eV  :  2.5359309D-01
@  kJ/mol:  2.4468015D+01
@    nm  :  4.8890996D+03

@ -<< XDIPLEN  ; XDIPLEN  >> =  8.189290467038E+01

@ FREQUENCY DEPENDENT SECOND ORDER PROPERTIES WITH FREQUENCY :

@    a.u.:  1.8638750D-02
@    cm-1:  4.0907327D+03
@    eV  :  5.0718619D-01
@  kJ/mol:  4.8936031D+01
@    nm  :  2.4445498D+03

@ -<< XDIPLEN  ; XDIPLEN  >> =  8.284250578132E+01

@ FREQUENCY DEPENDENT SECOND ORDER PROPERTIES WITH FREQUENCY :

@    a.u.:  2.7958125D-02
@    cm-1:  6.1360991D+03
@    eV  :  7.6077928D-01
@  kJ/mol:  7.3404046D+01
@    nm  :  1.6296999D+03

@ -<< XDIPLEN  ; XDIPLEN  >> =  8.447633957721E+01

@ FREQUENCY DEPENDENT SECOND ORDER PROPERTIES WITH FREQUENCY :

@    a.u.:  3.7277500D-02
@    cm-1:  8.1814655D+03
@    eV  :  1.0143724D+00
@  kJ/mol:  9.7872061D+01
@    nm  :  1.2222749D+03

@ -<< XDIPLEN  ; XDIPLEN  >> =  8.687791613391E+01

@ FREQUENCY DEPENDENT SECOND ORDER PROPERTIES WITH FREQUENCY :

@    a.u.:  4.6596875D-02
@    cm-1:  1.0226832D+04
@    eV  :  1.2679655D+00
@  kJ/mol:  1.2234008D+02
@    nm  :  9.7781993D+02

@ -<< XDIPLEN  ; XDIPLEN  >> =  9.017937962496E+01

@ FREQUENCY DEPENDENT SECOND ORDER PROPERTIES WITH FREQUENCY :

@    a.u.:  5.5916250D-02
@    cm-1:  1.2272198D+04
@    eV  :  1.5215586D+00
@  kJ/mol:  1.4680809D+02
@    nm  :  8.1484994D+02

@ -<< XDIPLEN  ; XDIPLEN  >> =  9.458143947218E+01

@ FREQUENCY DEPENDENT SECOND ORDER PROPERTIES WITH FREQUENCY :

@    a.u.:  6.5235625D-02
@    cm-1:  1.4317565D+04
@    eV  :  1.7751517D+00
@  kJ/mol:  1.7127611D+02
@    nm  :  6.9844281D+02

@ -<< XDIPLEN  ; XDIPLEN  >> =  1.003880394009E+02

@ FREQUENCY DEPENDENT SECOND ORDER PROPERTIES WITH FREQUENCY :

@    a.u.:  7.4555000D-02
@    cm-1:  1.6362931D+04
@    eV  :  2.0287447D+00
@  kJ/mol:  1.9574412D+02
@    nm  :  6.1113745D+02

@ -<< XDIPLEN  ; XDIPLEN  >> =  1.080683833727E+02


 Time used in linear response calculation is      3.07 CPU seconds for symmetry 2
 ----------------------------------------------------------------
 ----- Linear response calculation
 ----- Symmetry of excitation/property operator(s)    3  ( B2u)
 ----------------------------------------------------------------

 Number of excitations of this symmetry            0
 Number of response properties of this symmetry    1
 Number of C6/C8 properties of this symmetry       0


 Perturbation symmetry.     KSYMOP:           3
 Perturbation spin symmetry.TRPLET:           F
 Orbital variables.         KZWOPT:         131
 Configuration variables.   KZCONF:           0
 Total number of variables. KZVAR :         131


 RSPLR -- linear response calculation for symmetry 3  ( B2u)
 RSPLR -- operator label : YDIPLEN 
 RSPLR -- operator spin  :   0
 RSPLR -- frequencies    :     0.000000  0.009319  0.018639  0.027958  0.037277
                               0.046597  0.055916  0.065236  0.074555



 ---  SOLVING SETS OF LINEAR EQUATIONS FOR LINEAR RESPONSE PROPERTIES ---

 Operator symmetry = 3  ( B2u); triplet =   F

RSPORT:    1 out of    9 new trial vectors linear dependent

 ** RSPCTL MICROITERATION NUMBER    1

       No.  Residual tot.,    conf., and orb.    Bnorm      Frequency 
      ----------------------------------------------------------------
         1    4.05176D-01  0.00D+00  4.05D-01  1.46D+01    0.00000D+00
         2    4.09198D-01  0.00D+00  4.09D-01  1.47D+01    9.31937D-03
         3    4.21372D-01  0.00D+00  4.21D-01  1.50D+01    1.86387D-02
         4    4.42038D-01  0.00D+00  4.42D-01  1.55D+01    2.79581D-02
         5    4.71858D-01  0.00D+00  4.72D-01  1.63D+01    3.72775D-02
         6    5.11952D-01  0.00D+00  5.12D-01  1.73D+01    4.65969D-02
         7    5.64124D-01  0.00D+00  5.64D-01  1.87D+01    5.59163D-02
         8    6.31224D-01  0.00D+00  6.31D-01  2.06D+01    6.52356D-02
         9    7.17774D-01  0.00D+00  7.18D-01  2.30D+01    7.45550D-02

 ** RSPCTL MICROITERATION NUMBER    2

       No.  Residual tot.,    conf., and orb.    Bnorm      Frequency 
      ----------------------------------------------------------------
         1    1.89959D-02  0.00D+00  1.90D-02  1.46D+01    0.00000D+00
         2    1.91761D-02  0.00D+00  1.92D-02  1.47D+01    9.31937D-03
         3    1.97233D-02  0.00D+00  1.97D-02  1.50D+01    1.86387D-02
         4    2.06584D-02  0.00D+00  2.07D-02  1.55D+01    2.79581D-02
         5    2.20198D-02  0.00D+00  2.20D-02  1.63D+01    3.72775D-02
         6    2.38700D-02  0.00D+00  2.39D-02  1.74D+01    4.65969D-02
         7    2.63061D-02  0.00D+00  2.63D-02  1.88D+01    5.59163D-02
         8    2.94777D-02  0.00D+00  2.95D-02  2.06D+01    6.52356D-02
         9    3.36182D-02  0.00D+00  3.36D-02  2.30D+01    7.45550D-02

 ** RSPCTL MICROITERATION NUMBER    3

       No.  Residual tot.,    conf., and orb.    Bnorm      Frequency 
      ----------------------------------------------------------------
         1    7.55972D-04  0.00D+00  7.56D-04  1.46D+01    0.00000D+00
         2    7.59764D-04  0.00D+00  7.60D-04  1.47D+01    9.31937D-03
         3    7.71342D-04  0.00D+00  7.71D-04  1.50D+01    1.86387D-02
         4    7.91332D-04  0.00D+00  7.91D-04  1.55D+01    2.79581D-02
         5    8.20858D-04  0.00D+00  8.21D-04  1.63D+01    3.72775D-02
         6    8.61688D-04  0.00D+00  8.62D-04  1.74D+01    4.65969D-02
         7    9.16485D-04  0.00D+00  9.16D-04  1.88D+01    5.59163D-02
         8    9.89248D-04  0.00D+00  9.89D-04  2.06D+01    6.52356D-02
         9    1.08610D-03  0.00D+00  1.09D-03  2.30D+01    7.45550D-02

 *** THE REQUESTED    9 SOLUTION VECTORS CONVERGED

 Convergence of RSP solution vectors, threshold = 1.00D-03
 ---------------------------------------------------------------
 (dimension of paired reduced space:   52)
 RSP solution vector no.    1; norm of residual   5.19D-05
 RSP solution vector no.    2; norm of residual   5.18D-05
 RSP solution vector no.    3; norm of residual   5.15D-05
 RSP solution vector no.    4; norm of residual   5.10D-05
 RSP solution vector no.    5; norm of residual   5.04D-05
 RSP solution vector no.    6; norm of residual   4.96D-05
 RSP solution vector no.    7; norm of residual   4.89D-05
 RSP solution vector no.    8; norm of residual   4.81D-05
 RSP solution vector no.    9; norm of residual   4.73D-05

 *** RSPCTL MICROITERATIONS CONVERGED


           Final output of second order properties from linear response
           ------------------------------------------------------------


@ Spin symmetry of operators: singlet

 Note that minus the linear response function: - << A; B >>(omega) is printed.
 The results are of quadratic accuracy using Sellers formula.

@ FREQUENCY INDEPENDENT SECOND ORDER PROPERTIES

@ -<< YDIPLEN  ; YDIPLEN  >> =  8.158130648105E+01

@ FREQUENCY DEPENDENT SECOND ORDER PROPERTIES WITH FREQUENCY :

@    a.u.:  9.3193750D-03
@    cm-1:  2.0453664D+03
@    eV  :  2.5359309D-01
@  kJ/mol:  2.4468015D+01
@    nm  :  4.8890996D+03

@ -<< YDIPLEN  ; YDIPLEN  >> =  8.189290466200E+01

@ FREQUENCY DEPENDENT SECOND ORDER PROPERTIES WITH FREQUENCY :

@    a.u.:  1.8638750D-02
@    cm-1:  4.0907327D+03
@    eV  :  5.0718619D-01
@  kJ/mol:  4.8936031D+01
@    nm  :  2.4445498D+03

@ -<< YDIPLEN  ; YDIPLEN  >> =  8.284250577281E+01

@ FREQUENCY DEPENDENT SECOND ORDER PROPERTIES WITH FREQUENCY :

@    a.u.:  2.7958125D-02
@    cm-1:  6.1360991D+03
@    eV  :  7.6077928D-01
@  kJ/mol:  7.3404046D+01
@    nm  :  1.6296999D+03

@ -<< YDIPLEN  ; YDIPLEN  >> =  8.447633956844E+01

@ FREQUENCY DEPENDENT SECOND ORDER PROPERTIES WITH FREQUENCY :

@    a.u.:  3.7277500D-02
@    cm-1:  8.1814655D+03
@    eV  :  1.0143724D+00
@  kJ/mol:  9.7872061D+01
@    nm  :  1.2222749D+03

@ -<< YDIPLEN  ; YDIPLEN  >> =  8.687791612476E+01

@ FREQUENCY DEPENDENT SECOND ORDER PROPERTIES WITH FREQUENCY :

@    a.u.:  4.6596875D-02
@    cm-1:  1.0226832D+04
@    eV  :  1.2679655D+00
@  kJ/mol:  1.2234008D+02
@    nm  :  9.7781993D+02

@ -<< YDIPLEN  ; YDIPLEN  >> =  9.017937961527E+01

@ FREQUENCY DEPENDENT SECOND ORDER PROPERTIES WITH FREQUENCY :

@    a.u.:  5.5916250D-02
@    cm-1:  1.2272198D+04
@    eV  :  1.5215586D+00
@  kJ/mol:  1.4680809D+02
@    nm  :  8.1484994D+02

@ -<< YDIPLEN  ; YDIPLEN  >> =  9.458143946171E+01

@ FREQUENCY DEPENDENT SECOND ORDER PROPERTIES WITH FREQUENCY :

@    a.u.:  6.5235625D-02
@    cm-1:  1.4317565D+04
@    eV  :  1.7751517D+00
@  kJ/mol:  1.7127611D+02
@    nm  :  6.9844281D+02

@ -<< YDIPLEN  ; YDIPLEN  >> =  1.003880393894E+02

@ FREQUENCY DEPENDENT SECOND ORDER PROPERTIES WITH FREQUENCY :

@    a.u.:  7.4555000D-02
@    cm-1:  1.6362931D+04
@    eV  :  2.0287447D+00
@  kJ/mol:  1.9574412D+02
@    nm  :  6.1113745D+02

@ -<< YDIPLEN  ; YDIPLEN  >> =  1.080683833596E+02


 Time used in linear response calculation is      3.04 CPU seconds for symmetry 3
 ----------------------------------------------------------------
 ----- Linear response calculation
 ----- Symmetry of excitation/property operator(s)    5  ( B1u)
 ----------------------------------------------------------------

 Number of excitations of this symmetry            0
 Number of response properties of this symmetry    1
 Number of C6/C8 properties of this symmetry       0


 Perturbation symmetry.     KSYMOP:           5
 Perturbation spin symmetry.TRPLET:           F
 Orbital variables.         KZWOPT:         131
 Configuration variables.   KZCONF:           0
 Total number of variables. KZVAR :         131


 RSPLR -- linear response calculation for symmetry 5  ( B1u)
 RSPLR -- operator label : ZDIPLEN 
 RSPLR -- operator spin  :   0
 RSPLR -- frequencies    :     0.000000  0.009319  0.018639  0.027958  0.037277
                               0.046597  0.055916  0.065236  0.074555



 ---  SOLVING SETS OF LINEAR EQUATIONS FOR LINEAR RESPONSE PROPERTIES ---

 Operator symmetry = 5  ( B1u); triplet =   F

RSPORT:    1 out of    9 new trial vectors linear dependent

 ** RSPCTL MICROITERATION NUMBER    1

       No.  Residual tot.,    conf., and orb.    Bnorm      Frequency 
      ----------------------------------------------------------------
         1    3.91446D-01  0.00D+00  3.91D-01  1.46D+01    0.00000D+00
         2    3.96288D-01  0.00D+00  3.96D-01  1.47D+01    9.31937D-03
         3    4.10875D-01  0.00D+00  4.11D-01  1.50D+01    1.86387D-02
         4    4.35443D-01  0.00D+00  4.35D-01  1.55D+01    2.79581D-02
         5    4.70530D-01  0.00D+00  4.71D-01  1.63D+01    3.72775D-02
         6    5.17170D-01  0.00D+00  5.17D-01  1.73D+01    4.65969D-02
         7    5.77170D-01  0.00D+00  5.77D-01  1.87D+01    5.59163D-02
         8    6.53521D-01  0.00D+00  6.54D-01  2.06D+01    6.52356D-02
         9    7.51076D-01  0.00D+00  7.51D-01  2.30D+01    7.45550D-02

 ** RSPCTL MICROITERATION NUMBER    2

       No.  Residual tot.,    conf., and orb.    Bnorm      Frequency 
      ----------------------------------------------------------------
         1    1.88679D-02  0.00D+00  1.89D-02  1.46D+01    0.00000D+00
         2    1.90709D-02  0.00D+00  1.91D-02  1.47D+01    9.31937D-03
         3    1.96858D-02  0.00D+00  1.97D-02  1.50D+01    1.86387D-02
         4    2.07313D-02  0.00D+00  2.07D-02  1.55D+01    2.79581D-02
         5    2.22435D-02  0.00D+00  2.22D-02  1.63D+01    3.72775D-02
         6    2.42832D-02  0.00D+00  2.43D-02  1.74D+01    4.65969D-02
         7    2.69478D-02  0.00D+00  2.69D-02  1.88D+01    5.59163D-02
         8    3.03903D-02  0.00D+00  3.04D-02  2.06D+01    6.52356D-02
         9    3.48526D-02  0.00D+00  3.49D-02  2.30D+01    7.45550D-02

 ** RSPCTL MICROITERATION NUMBER    3

       No.  Residual tot.,    conf., and orb.    Bnorm      Frequency 
      ----------------------------------------------------------------
         1    6.50362D-04  0.00D+00  6.50D-04  1.46D+01    0.00000D+00
         2    6.67383D-04  0.00D+00  6.67D-04  1.47D+01    9.31937D-03
         3    7.17440D-04  0.00D+00  7.17D-04  1.50D+01    1.86387D-02
         4    7.98373D-04  0.00D+00  7.98D-04  1.55D+01    2.79581D-02
         5    9.08583D-04  0.00D+00  9.09D-04  1.63D+01    3.72775D-02
         6    1.04843D-03  0.00D+00  1.05D-03  1.74D+01    4.65969D-02
         7    1.22109D-03  0.00D+00  1.22D-03  1.88D+01    5.59163D-02
         8    1.43340D-03  0.00D+00  1.43D-03  2.06D+01    6.52356D-02
         9    1.69729D-03  0.00D+00  1.70D-03  2.30D+01    7.45550D-02

 *** THE REQUESTED    9 SOLUTION VECTORS CONVERGED

 Convergence of RSP solution vectors, threshold = 1.00D-03
 ---------------------------------------------------------------
 (dimension of paired reduced space:   52)
 RSP solution vector no.    1; norm of residual   4.46D-05
 RSP solution vector no.    2; norm of residual   4.55D-05
 RSP solution vector no.    3; norm of residual   4.79D-05
 RSP solution vector no.    4; norm of residual   5.14D-05
 RSP solution vector no.    5; norm of residual   5.58D-05
 RSP solution vector no.    6; norm of residual   6.04D-05
 RSP solution vector no.    7; norm of residual   6.51D-05
 RSP solution vector no.    8; norm of residual   6.96D-05
 RSP solution vector no.    9; norm of residual   7.39D-05

 *** RSPCTL MICROITERATIONS CONVERGED


           Final output of second order properties from linear response
           ------------------------------------------------------------


@ Spin symmetry of operators: singlet

 Note that minus the linear response function: - << A; B >>(omega) is printed.
 The results are of quadratic accuracy using Sellers formula.

@ FREQUENCY INDEPENDENT SECOND ORDER PROPERTIES

@ -<< ZDIPLEN  ; ZDIPLEN  >> =  8.158130648151E+01

@ FREQUENCY DEPENDENT SECOND ORDER PROPERTIES WITH FREQUENCY :

@    a.u.:  9.3193750D-03
@    cm-1:  2.0453664D+03
@    eV  :  2.5359309D-01
@  kJ/mol:  2.4468015D+01
@    nm  :  4.8890996D+03

@ -<< ZDIPLEN  ; ZDIPLEN  >> =  8.189290466234E+01

@ FREQUENCY DEPENDENT SECOND ORDER PROPERTIES WITH FREQUENCY :

@    a.u.:  1.8638750D-02
@    cm-1:  4.0907327D+03
@    eV  :  5.0718619D-01
@  kJ/mol:  4.8936031D+01
@    nm  :  2.4445498D+03

@ -<< ZDIPLEN  ; ZDIPLEN  >> =  8.284250577277E+01

@ FREQUENCY DEPENDENT SECOND ORDER PROPERTIES WITH FREQUENCY :

@    a.u.:  2.7958125D-02
@    cm-1:  6.1360991D+03
@    eV  :  7.6077928D-01
@  kJ/mol:  7.3404046D+01
@    nm  :  1.6296999D+03

@ -<< ZDIPLEN  ; ZDIPLEN  >> =  8.447633956773E+01

@ FREQUENCY DEPENDENT SECOND ORDER PROPERTIES WITH FREQUENCY :

@    a.u.:  3.7277500D-02
@    cm-1:  8.1814655D+03
@    eV  :  1.0143724D+00
@  kJ/mol:  9.7872061D+01
@    nm  :  1.2222749D+03

@ -<< ZDIPLEN  ; ZDIPLEN  >> =  8.687791612303E+01

@ FREQUENCY DEPENDENT SECOND ORDER PROPERTIES WITH FREQUENCY :

@    a.u.:  4.6596875D-02
@    cm-1:  1.0226832D+04
@    eV  :  1.2679655D+00
@  kJ/mol:  1.2234008D+02
@    nm  :  9.7781993D+02

@ -<< ZDIPLEN  ; ZDIPLEN  >> =  9.017937961206E+01

@ FREQUENCY DEPENDENT SECOND ORDER PROPERTIES WITH FREQUENCY :

@    a.u.:  5.5916250D-02
@    cm-1:  1.2272198D+04
@    eV  :  1.5215586D+00
@  kJ/mol:  1.4680809D+02
@    nm  :  8.1484994D+02

@ -<< ZDIPLEN  ; ZDIPLEN  >> =  9.458143945641E+01

@ FREQUENCY DEPENDENT SECOND ORDER PROPERTIES WITH FREQUENCY :

@    a.u.:  6.5235625D-02
@    cm-1:  1.4317565D+04
@    eV  :  1.7751517D+00
@  kJ/mol:  1.7127611D+02
@    nm  :  6.9844281D+02

@ -<< ZDIPLEN  ; ZDIPLEN  >> =  1.003880393811E+02

@ FREQUENCY DEPENDENT SECOND ORDER PROPERTIES WITH FREQUENCY :

@    a.u.:  7.4555000D-02
@    cm-1:  1.6362931D+04
@    eV  :  2.0287447D+00
@  kJ/mol:  1.9574412D+02
@    nm  :  6.1113745D+02

@ -<< ZDIPLEN  ; ZDIPLEN  >> =  1.080683833469E+02


 Time used in linear response calculation is      3.07 CPU seconds for symmetry 5

  Total CPU  time used in RESPONSE:   9.19 seconds
  Total wall time used in RESPONSE:   9.21 seconds


                   .-------------------------------------------.
                   | End of Dynamic Property Section (RESPONS) |
                   `-------------------------------------------'

  Total CPU  time used in DALTON:  11.09 seconds
  Total wall time used in DALTON:  11.13 seconds

 
     Date and time (Linux)  : Wed Jan 11 15:39:18 2023
     Host name              : cn036                                   
