

     ************************************************************************
     *************** Dalton - An Electronic Structure Program ***************
     ************************************************************************

    This is output from DALTON release Dalton2020.0 (2020)
         ( Web site: http://daltonprogram.org )

   ----------------------------------------------------------------------------

    NOTE:
     
    Dalton is an experimental code for the evaluation of molecular
    properties using (MC)SCF, DFT, CI, and CC wave functions.
    The authors accept no responsibility for the performance of
    the code or for the correctness of the results.
     
    The code (in whole or part) is provided under a licence and
    is not to be reproduced for further distribution without
    the written permission of the authors or their representatives.
     
    See the home page "http://daltonprogram.org" for further information.
     
    If results obtained with this code are published,
    the appropriate citations would be both of:
     
       K. Aidas, C. Angeli, K. L. Bak, V. Bakken, R. Bast,
       L. Boman, O. Christiansen, R. Cimiraglia, S. Coriani,
       P. Dahle, E. K. Dalskov, U. Ekstroem,
       T. Enevoldsen, J. J. Eriksen, P. Ettenhuber, B. Fernandez,
       L. Ferrighi, H. Fliegl, L. Frediani, K. Hald, A. Halkier,
       C. Haettig, H. Heiberg, T. Helgaker, A. C. Hennum,
       H. Hettema, E. Hjertenaes, S. Hoest, I.-M. Hoeyvik,
       M. F. Iozzi, B. Jansik, H. J. Aa. Jensen, D. Jonsson,
       P. Joergensen, J. Kauczor, S. Kirpekar,
       T. Kjaergaard, W. Klopper, S. Knecht, R. Kobayashi, H. Koch,
       J. Kongsted, A. Krapp, K. Kristensen, A. Ligabue,
       O. B. Lutnaes, J. I. Melo, K. V. Mikkelsen, R. H. Myhre,
       C. Neiss, C. B. Nielsen, P. Norman, J. Olsen,
       J. M. H. Olsen, A. Osted, M. J. Packer, F. Pawlowski,
       T. B. Pedersen, P. F. Provasi, S. Reine, Z. Rinkevicius,
       T. A. Ruden, K. Ruud, V. Rybkin, P. Salek, C. C. M. Samson,
       A. Sanchez de Meras, T. Saue, S. P. A. Sauer,
       B. Schimmelpfennig, K. Sneskov, A. H. Steindal,
       K. O. Sylvester-Hvid, P. R. Taylor, A. M. Teale,
       E. I. Tellgren, D. P. Tew, A. J. Thorvaldsen, L. Thoegersen,
       O. Vahtras, M. A. Watson, D. J. D. Wilson, M. Ziolkowski
       and H. Agren,
       "The Dalton quantum chemistry program system",
       WIREs Comput. Mol. Sci. 2014, 4:269–284 (doi: 10.1002/wcms.1172)
     
    and
     
       Dalton, a molecular electronic structure program,
       Release Dalton2020.0 (2020), see http://daltonprogram.org
   ----------------------------------------------------------------------------

    Authors in alphabetical order (Major contribution(s) in parenthesis):

  Kestutis Aidas,           Vilnius University,           Lithuania   (QM/MM)
  Celestino Angeli,         University of Ferrara,        Italy       (NEVPT2)
  Keld L. Bak,              UNI-C,                        Denmark     (AOSOPPA, non-adiabatic coupling, magnetic properties)
  Vebjoern Bakken,          University of Oslo,           Norway      (DALTON; geometry optimizer, symmetry detection)
  Radovan Bast,             UiT The Arctic U. of Norway,  Norway      (DALTON installation and execution frameworks)
  Pablo Baudin,             University of Valencia,       Spain       (Cholesky excitation energies)
  Linus Boman,              NTNU,                         Norway      (Cholesky decomposition and subsystems)
  Bruno N. Cabral Tenorio,  Technical Univ. of Denmark,   Denmark     (Lanczos-based CC methods)
  Ove Christiansen,         Aarhus University,            Denmark     (CC module)
  Renzo Cimiraglia,         University of Ferrara,        Italy       (NEVPT2)
  Sonia Coriani,            Technical Univ. of Denmark,   Denmark     (CC and RESPONS modules)
  Janusz Cukras,            University of Warsaw,         Poland      (MChD in RESPONS)
  Paal Dahle,               University of Oslo,           Norway      (Parallelization)
  Erik K. Dalskov,          UNI-C,                        Denmark     (SOPPA)
  Thomas Enevoldsen,        Univ. of Southern Denmark,    Denmark     (SOPPA)
  Janus J. Eriksen,         Aarhus University,            Denmark     (Polarizable embedding, TDA)
  Rasmus Faber,             Technical Univ. of Denmark,   Denmark     (Vib.avg. NMR w. SOPPA, parallel AO-SOPPA, CVS-CC and EOMCC)
  Tobias Fahleson,          KTH Stockholm,                Sweden      (Damped cubic response)
  Berta Fernandez,          U. of Santiago de Compostela, Spain       (Doublet spin, ESR in RESPONS)
  Lara Ferrighi,            Aarhus University,            Denmark     (PCM Cubic response)
  Heike Fliegl,             University of Oslo,           Norway      (CCSD(R12))
  Luca Frediani,            UiT The Arctic U. of Norway,  Norway      (PCM)
  Emmanuel Fromager,        Univ. Strasbourg,             France      (MC-srDFT)
  Bin Gao,                  UiT The Arctic U. of Norway,  Norway      (Gen1Int library)
  Andre S. P. Gomes,        CNRS/Universite de Lille,     France      (Frozen density embedding)
  Christof Haettig,         Ruhr-University Bochum,       Germany     (CC module)
  Kasper Hald,              Aarhus University,            Denmark     (CC module)
  Asger Halkier,            Aarhus University,            Denmark     (CC module)
  Frederik Beyer Hansen,    University of Copenhagen,     Denmark     (Parallel AO-SOPPA)
  Erik D. Hedegaard,        Univ. of Southern Denmark,    Denmark     (Polarizable embedding, QM/MM, and MC-srDFT)
  Hanne Heiberg,            University of Oslo,           Norway      (Geometry analysis, selected one-electron integrals)
  Trygve Helgaker,          University of Oslo,           Norway      (DALTON; ABACUS, ERI, DFT modules, London, and much more)
  Alf Christian Hennum,     University of Oslo,           Norway      (Parity violation)
  Hinne Hettema,            University of Auckland,       New Zealand (Quadratic response in RESPONS; SIRIUS supersymmetry)
  Eirik Hjertenaes,         NTNU,                         Norway      (Cholesky decomposition)
  Pi A. B. Haase,           University of Copenhagen,     Denmark     (Triplet AO-SOPPA)
  Maria Francesca Iozzi,    University of Oslo,           Norway      (RPA)
  Christoph Jacob           TU Braunschweig               Germany     (Frozen density embedding)
  Brano Jansik              Technical Univ. of Ostrava    Czech Rep.  (DFT cubic response)
  Hans Joergen Aa. Jensen,  Univ. of Southern Denmark,    Denmark     (DALTON; SIRIUS, RESPONS, ABACUS, MC-srDFT, and much more)
  Dan Jonsson,              UiT The Arctic U. of Norway,  Norway      (Cubic response in RESPONS module)
  Poul Joergensen,          Aarhus University,            Denmark     (RESPONS, ABACUS, and CC modules)
  Maciej Kaminski,          University of Warsaw,         Poland      (CPPh in RESPONS)
  Joanna Kauczor,           Linkoeping University,        Sweden      (Complex polarization propagator (CPP) module)
  Sheela Kirpekar,          Univ. of Southern Denmark,    Denmark     (Mass-velocity & Darwin integrals)
  Erik Kjellgren,           Univ. of Southern Denmark,    Denmark     (MC-srDFT)
  Wim Klopper,              KIT Karlsruhe,                Germany     (R12 code in CC, SIRIUS, and ABACUS modules)
  Stefan Knecht,            ETH Zurich,                   Switzerland (Parallel CI and MCSCF, MC-srDFT)
  Rika Kobayashi,           Australian National Univ.,    Australia   (DIIS in CC, London in MCSCF)
  Henrik Koch,              NTNU,                         Norway      (CC module, Cholesky decomposition)
  Jacob Kongsted,           Univ. of Southern Denmark,    Denmark     (Polarizable embedding, polarizable density embedding, QM/MM)
  Andrea Ligabue,           University of Modena,         Italy       (CTOCD, AOSOPPA)
  Nanna H. List             Univ. of Southern Denmark,    Denmark     (Polarizable embedding)
  Ola B. Lutnaes,           University of Oslo,           Norway      (DFT Hessian)
  Juan I. Melo,             University of Buenos Aires,   Argentina   (LRESC, Relativistic Effects on NMR Shieldings)
  Kurt V. Mikkelsen,        University of Copenhagen,     Denmark     (MC-SCRF and QM/MM)
  Rolf H. Myhre,            NTNU,                         Norway      (Subsystems and CC3)
  Christian Neiss,          Univ. Erlangen-Nuernberg,     Germany     (CCSD(R12))
  Christian B. Nielsen,     University of Copenhagen,     Denmark     (QM/MM)
  Patrick Norman,           KTH Stockholm,                Sweden      (Cubic response and complex frequency response in RESPONS)
  Jeppe Olsen,              Aarhus University,            Denmark     (SIRIUS CI/density modules)
  Jogvan Magnus H. Olsen,   Aarhus University,            Denmark     (Polarizable embedding and polarizable density embedding)
  Anders Osted,             Copenhagen University,        Denmark     (QM/MM)
  Martin J. Packer,         University of Sheffield,      UK          (SOPPA)
  Filip Pawlowski,          Kazimierz Wielki University,  Poland      (CC3)
  Morten N. Pedersen,       Univ. of Southern Denmark,    Denmark     (Polarizable embedding)
  Thomas B. Pedersen,       University of Oslo,           Norway      (Cholesky decomposition)
  Patricio F. Provasi,      University of Northeastern,   Argentina   (Analysis of coupling constants in localized orbitals)
  Peter Reinholdt,          Univ. of Southern Denmark,    Denmark     (Polarizable embedding and polarizable density embedding)
  Zilvinas Rinkevicius,     KTH Stockholm,                Sweden      (open-shell DFT, ESR)
  Elias Rudberg,            KTH Stockholm,                Sweden      (DFT grid and basis info)
  Torgeir A. Ruden,         University of Oslo,           Norway      (Numerical derivatives in ABACUS)
  Kenneth Ruud,             UiT The Arctic U. of Norway,  Norway      (DALTON; ABACUS magnetic properties and much more)
  Pawel Salek,              KTH Stockholm,                Sweden      (DALTON; DFT code)
  Claire C. M. Samson       University of Karlsruhe       Germany     (Boys localization, r12 integrals in ERI)
  Alfredo Sanchez de Meras, University of Valencia,       Spain       (CC module, Cholesky decomposition)
  Trond Saue,               Paul Sabatier University,     France      (direct Fock matrix construction)
  Stephan P. A. Sauer,      University of Copenhagen,     Denmark     (SOPPA(CCSD), SOPPA prop., AOSOPPA, vibrational g-factors)
  Bernd Schimmelpfennig,    Forschungszentrum Karlsruhe,  Germany     (AMFI module)
  Anna K. Schnack-Petersen, University of Copenhagen,     Denmark     (RPA(D) and HRPA(D) properties in AOSOPPA)
  Kristian Sneskov,         Aarhus University,            Denmark     (Polarizable embedding, QM/MM)
  Arnfinn H. Steindal,      UiT The Arctic U. of Norway,  Norway      (parallel QM/MM, polarizable embedding)
  Casper Steinmann,         Aalborg University,           Denmark     (QFIT, polarizable embedding)
  K. O. Sylvester-Hvid,     University of Copenhagen,     Denmark     (MC-SCRF)
  Peter R. Taylor,          VLSCI/Univ. of Melbourne,     Australia   (Symmetry handling ABACUS, integral transformation)
  Andrew M. Teale,          University of Nottingham,     England     (DFT-AC, DFT-D)
  David P. Tew,             University of Bristol,        England     (CCSD(R12))
  Julien Toulouse,          Sorbonne Univ.,               France      (MC-srDFT)
  Olav Vahtras,             KTH Stockholm,                Sweden      (Triplet response, spin-orbit, ESR, TDDFT, open-shell DFT)
  Lucas Visscher,           Vrije Universiteit Amsterdam, Netherlands (Frozen density embedding)
  David J. Wilson,          La Trobe University,          Australia   (DFT Hessian and DFT magnetizabilities)
  Hans Agren,               KTH Stockholm,                Sweden      (SIRIUS module, RESPONS, MC-SCRF solvation)
 --------------------------------------------------------------------------------

     Date and time (Linux)  : Wed Jan 11 15:39:27 2023
     Host name              : cn021                                   

 * Work memory size             :    64000000 =  488.28 megabytes.

 * Directories for basis set searches:
   1) /gpfs/projects/rjh/adrian/fd_compare/dalton/hf/N2/dipole
   2) /gpfs/projects/rjh/adrian/dalton/build/basis


Compilation information
-----------------------

 Who compiled             | ahurtado
 Host                     | sn-mem
 System                   | Linux-3.10.0-1160.24.1.el7.x86_64
 CMake generator          | Unix Makefiles
 Processor                | x86_64
 64-bit integers          | OFF
 MPI                      | ON
 Fortran compiler         | /gpfs/software/intel/oneAPI/2021_4/mpi/2021.4.0/bi
                          | n/mpif90
 Fortran compiler version | GNU Fortran (GCC) 11.2.0
 C compiler               | /gpfs/software/intel/oneAPI/2021_4/mpi/2021.4.0/bi
                          | n/mpicc
 C compiler version       | gcc (GCC) 11.2.0
 C++ compiler             | /gpfs/software/intel/oneAPI/2021_4/mpi/2021.4.0/bi
                          | n/mpicxx
 C++ compiler version     | unknown
 BLAS                     | /gpfs/software/intel/oneAPI/2021_4/mkl/2021.4.0/li
                          | b/intel64/libmkl_gf_lp64.so;/gpfs/software/intel/o
                          | neAPI/2021_4/mkl/2021.4.0/lib/intel64/libmkl_seque
                          | ntial.so;/gpfs/software/intel/oneAPI/2021_4/mkl/20
                          | 21.4.0/lib/intel64/libmkl_core.so;/usr/lib64/libpt
                          | hread.so;/usr/lib64/libm.so
 LAPACK                   | /gpfs/software/intel/oneAPI/2021_4/mkl/2021.4.0/li
                          | b/intel64/libmkl_lapack95_lp64.a;/gpfs/software/in
                          | tel/oneAPI/2021_4/mkl/2021.4.0/lib/intel64/libmkl_
                          | gf_lp64.so
 Static linking           | OFF
 Last Git revision        | 66052b3af5ea7225e31178bf9a8b031913c72190
 Git branch               | (HEAD detached at Dalton2020.0)
 Configuration time       | 2023-01-11 13:33:37.731835

 * MPI parallel run using 20 processes.


   Content of the .dal input file
 ----------------------------------

**DALTON INPUT
.RUN RESPONSE
.DIRECT
**WAVE FUNCTIONS
.HF
**RESPONSE
*LINEAR
.DIPLEN
.FREQUENCIES
9
0.0 0.0182501875 0.036500375 0.0547505625 0.07300075 0.0912509375 0.109501125 0.1277513125 0.1460015
**END OF DALTON INPUT


   Content of the .mol file
 ----------------------------

BASIS
d-aug-cc-pCVTZ
blah
blah
Atomtype=1 Atomic
Charge=7 Atoms=2
N_a 0.000000000000 0.000000000000 0.000000000000
N_b 0.000000000000 0.000000000000 2.074320000000


       *******************************************************************
       *********** Output from DALTON general input processing ***********
       *******************************************************************

 --------------------------------------------------------------------------------
   Overall default print level:    0
   Print level for DALTON.STAT:    1

    Parallel calculation using MPI
    AO-direct calculation (in sections where implemented)
    HERMIT 1- and 2-electron integral sections will be executed
    "Old" integral transformation used (limited to max 255 basis functions)
    Wave function sections will be executed (SIRIUS module)
    Dynamic molecular response properties section will be executed (RESPONSE module)
 --------------------------------------------------------------------------------


   ****************************************************************************
   *************** Output of molecule and basis set information ***************
   ****************************************************************************


    The two title cards from your ".mol" input:
    ------------------------------------------------------------------------
 1: blah                                                                    
 2: blah                                                                    
    ------------------------------------------------------------------------

  Atomic type no.    1
  --------------------
  Nuclear charge:   7.00000
  Number of symmetry independent centers:    2
  Number of basis sets to read;    2
  Basis set file used for this atomic type with Z =   7 :
     "/gpfs/projects/rjh/adrian/dalton/build/basis/aug-cc-pCVTZ"


                      SYMADD: Requested addition of symmetry
                      --------------------------------------

 Symmetry test threshold:  5.00E-06

@   The molecule is centered at center of mass and rotated
@   so principal axes of inertia are along coordinate axes.

 Symmetry class found: D(oo,h)        

 Symmetry Independent Centres             
 ----------------------------
N_b    7 :      0.00000000     0.00000000     1.03716000  Isotope  1

 The following symmetry elements were found:   X  Y  Z  


                         SYMGRP: Point group information
                         -------------------------------

@    Full point group is: D(oo,h)        
@    Represented as:      D2h

@  * The irrep name for each symmetry:    1: Ag     2: B3u    3: B2u    4: B1g    5: B1u    6: B2g    7: B3g    8: Au 


   * The point group was generated by:

      Reflection in the yz-plane
      Reflection in the xz-plane
      Reflection in the xy-plane

   * Group multiplication table

        |  E   C2z  C2y  C2x   i   Oxy  Oxz  Oyz
   -----+----------------------------------------
     E  |  E   C2z  C2y  C2x   i   Oxy  Oxz  Oyz
    C2z | C2z   E   C2x  C2y  Oxy   i   Oyz  Oxz
    C2y | C2y  C2x   E   C2z  Oxz  Oyz   i   Oxy
    C2x | C2x  C2y  C2z   E   Oyz  Oxz  Oxy   i 
     i  |  i   Oxy  Oxz  Oyz   E   C2z  C2y  C2x
    Oxy | Oxy   i   Oyz  Oxz  C2z   E   C2x  C2y
    Oxz | Oxz  Oyz   i   Oxy  C2y  C2x   E   C2z
    Oyz | Oyz  Oxz  Oxy   i   C2x  C2y  C2z   E 

   * Character table

        |  E   C2z  C2y  C2x   i   Oxy  Oxz  Oyz
   -----+----------------------------------------
    Ag  |   1    1    1    1    1    1    1    1
    B3u |   1   -1   -1    1   -1    1    1   -1
    B2u |   1   -1    1   -1   -1    1   -1    1
    B1g |   1    1   -1   -1    1    1   -1   -1
    B1u |   1    1   -1   -1   -1   -1    1    1
    B2g |   1   -1    1   -1    1   -1    1   -1
    B3g |   1   -1   -1    1    1   -1   -1    1
    Au  |   1    1    1    1   -1   -1   -1   -1

   * Direct product table

        | Ag   B3u  B2u  B1g  B1u  B2g  B3g  Au 
   -----+----------------------------------------
    Ag  | Ag   B3u  B2u  B1g  B1u  B2g  B3g  Au 
    B3u | B3u  Ag   B1g  B2u  B2g  B1u  Au   B3g
    B2u | B2u  B1g  Ag   B3u  B3g  Au   B1u  B2g
    B1g | B1g  B2u  B3u  Ag   Au   B3g  B2g  B1u
    B1u | B1u  B2g  B3g  Au   Ag   B3u  B2u  B1g
    B2g | B2g  B1u  Au   B3g  B3u  Ag   B1g  B2u
    B3g | B3g  Au   B1u  B2g  B2u  B1g  Ag   B3u
    Au  | Au   B3g  B2g  B1u  B1g  B2u  B3u  Ag 


                                 Isotopic Masses
                                 ---------------

                           N_b _1     14.003074
                           N_b _2     14.003074

                       Total mass:    28.006148 amu
                       Natural abundance:  99.261 %

 Center-of-mass coordinates (a.u.):    0.000000    0.000000    0.000000
 Center-of-mass coordinates (Angs):    0.000000    0.000000    0.000000


  Atoms and basis sets
  --------------------

  Number of atom types :    1
  Total number of atoms:    2

  Basis set used is "d-aug-cc-pCVTZ" from the basis set library.

  label    atoms   charge   prim   cont     basis
  ----------------------------------------------------------------------
  N_          2    7.0000    87    75      [14s9p5d3f|8s7p5d3f]                               
  ----------------------------------------------------------------------
  total:      2   14.0000   174   150
  ----------------------------------------------------------------------
  Spherical harmonic basis used.

  Threshold for neglecting AO integrals:  1.00D-12


  Cartesian Coordinates (a.u.)
  ----------------------------

  Total number of coordinates:    6
  N_b / 1 :     1  x   0.0000000000    2  y   0.0000000000    3  z   1.0371600000
  N_b / 2 :     4  x   0.0000000000    5  y   0.0000000000    6  z  -1.0371600000


  Symmetry Coordinates
  --------------------

  Number of coordinates in each symmetry:     1    1    1    0    1    1    1    0

  Symmetry  Ag  ( 1)

    1   N_b   z    [  3  -    6 ]/2

  Symmetry  B3u ( 2)

    2   N_b   x    [  1  +    4 ]/2

  Symmetry  B2u ( 3)

    3   N_b   y    [  2  +    5 ]/2

  Symmetry  B1u ( 5)

    4   N_b   z    [  3  +    6 ]/2

  Symmetry  B2g ( 6)

    5   N_b   x    [  1  -    4 ]/2

  Symmetry  B3g ( 7)

    6   N_b   y    [  2  -    5 ]/2


   Interatomic separations (in Angstrom):
   --------------------------------------

            N_b _1      N_b _2
            ------      ------
 N_b _1:    0.000000
 N_b _2:    1.097683    0.000000


  Max    interatomic separation is    1.0977 Angstrom (    2.0743 Bohr)
  between atoms    2 and    1, "N_b _2" and "N_b _1".

  Min YX interatomic separation is    1.0977 Angstrom (    2.0743 Bohr)


  Bond distances (Angstrom):
  --------------------------

                  atom 1     atom 2       distance
                  ------     ------       --------
  bond distance:  N_b _2     N_b _1       1.097683




 Principal moments of inertia (u*A**2) and principal axes
 --------------------------------------------------------

   IA       0.000000          0.000000    0.000000    1.000000
   IB       8.436206          0.000000    1.000000    0.000000
   IC       8.436206          1.000000    0.000000    0.000000


 Rotational constants
 --------------------

@    The molecule is linear.

               B =        59905.96 MHz     (    1.998248 cm-1)


@  Nuclear repulsion energy :   23.622199082109 Hartree


  Symmetry Orbitals
  -----------------

  Number of orbitals in each symmetry:          31   18   18    8   31   18   18    8


  Symmetry  Ag ( 1)

    1     N_b      1s         1 +    2
    2     N_b      1s         3 +    4
    3     N_b      1s         5 +    6
    4     N_b      1s         7 +    8
    5     N_b      1s         9 +   10
    6     N_b      1s        11 +   12
    7     N_b      1s        13 +   14
    8     N_b      1s        15 +   16
    9     N_b      2pz       21 -   22
   10     N_b      2pz       27 -   28
   11     N_b      2pz       33 -   34
   12     N_b      2pz       39 -   40
   13     N_b      2pz       45 -   46
   14     N_b      2pz       51 -   52
   15     N_b      2pz       57 -   58
   16     N_b      3d0       63 +   64
   17     N_b      3d2+      67 +   68
   18     N_b      3d0       73 +   74
   19     N_b      3d2+      77 +   78
   20     N_b      3d0       83 +   84
   21     N_b      3d2+      87 +   88
   22     N_b      3d0       93 +   94
   23     N_b      3d2+      97 +   98
   24     N_b      3d0      103 +  104
   25     N_b      3d2+     107 +  108
   26     N_b      4f0      115 -  116
   27     N_b      4f2+     119 -  120
   28     N_b      4f0      129 -  130
   29     N_b      4f2+     133 -  134
   30     N_b      4f0      143 -  144
   31     N_b      4f2+     147 -  148


  Symmetry  B3u( 2)

   32     N_b      2px       17 +   18
   33     N_b      2px       23 +   24
   34     N_b      2px       29 +   30
   35     N_b      2px       35 +   36
   36     N_b      2px       41 +   42
   37     N_b      2px       47 +   48
   38     N_b      2px       53 +   54
   39     N_b      3d1+      65 -   66
   40     N_b      3d1+      75 -   76
   41     N_b      3d1+      85 -   86
   42     N_b      3d1+      95 -   96
   43     N_b      3d1+     105 -  106
   44     N_b      4f1+     117 +  118
   45     N_b      4f3+     121 +  122
   46     N_b      4f1+     131 +  132
   47     N_b      4f3+     135 +  136
   48     N_b      4f1+     145 +  146
   49     N_b      4f3+     149 +  150


  Symmetry  B2u( 3)

   50     N_b      2py       19 +   20
   51     N_b      2py       25 +   26
   52     N_b      2py       31 +   32
   53     N_b      2py       37 +   38
   54     N_b      2py       43 +   44
   55     N_b      2py       49 +   50
   56     N_b      2py       55 +   56
   57     N_b      3d1-      61 -   62
   58     N_b      3d1-      71 -   72
   59     N_b      3d1-      81 -   82
   60     N_b      3d1-      91 -   92
   61     N_b      3d1-     101 -  102
   62     N_b      4f3-     109 +  110
   63     N_b      4f1-     113 +  114
   64     N_b      4f3-     123 +  124
   65     N_b      4f1-     127 +  128
   66     N_b      4f3-     137 +  138
   67     N_b      4f1-     141 +  142


  Symmetry  B1g( 4)

   68     N_b      3d2-      59 +   60
   69     N_b      3d2-      69 +   70
   70     N_b      3d2-      79 +   80
   71     N_b      3d2-      89 +   90
   72     N_b      3d2-      99 +  100
   73     N_b      4f2-     111 -  112
   74     N_b      4f2-     125 -  126
   75     N_b      4f2-     139 -  140


  Symmetry  B1u( 5)

   76     N_b      1s         1 -    2
   77     N_b      1s         3 -    4
   78     N_b      1s         5 -    6
   79     N_b      1s         7 -    8
   80     N_b      1s         9 -   10
   81     N_b      1s        11 -   12
   82     N_b      1s        13 -   14
   83     N_b      1s        15 -   16
   84     N_b      2pz       21 +   22
   85     N_b      2pz       27 +   28
   86     N_b      2pz       33 +   34
   87     N_b      2pz       39 +   40
   88     N_b      2pz       45 +   46
   89     N_b      2pz       51 +   52
   90     N_b      2pz       57 +   58
   91     N_b      3d0       63 -   64
   92     N_b      3d2+      67 -   68
   93     N_b      3d0       73 -   74
   94     N_b      3d2+      77 -   78
   95     N_b      3d0       83 -   84
   96     N_b      3d2+      87 -   88
   97     N_b      3d0       93 -   94
   98     N_b      3d2+      97 -   98
   99     N_b      3d0      103 -  104
  100     N_b      3d2+     107 -  108
  101     N_b      4f0      115 +  116
  102     N_b      4f2+     119 +  120
  103     N_b      4f0      129 +  130
  104     N_b      4f2+     133 +  134
  105     N_b      4f0      143 +  144
  106     N_b      4f2+     147 +  148


  Symmetry  B2g( 6)

  107     N_b      2px       17 -   18
  108     N_b      2px       23 -   24
  109     N_b      2px       29 -   30
  110     N_b      2px       35 -   36
  111     N_b      2px       41 -   42
  112     N_b      2px       47 -   48
  113     N_b      2px       53 -   54
  114     N_b      3d1+      65 +   66
  115     N_b      3d1+      75 +   76
  116     N_b      3d1+      85 +   86
  117     N_b      3d1+      95 +   96
  118     N_b      3d1+     105 +  106
  119     N_b      4f1+     117 -  118
  120     N_b      4f3+     121 -  122
  121     N_b      4f1+     131 -  132
  122     N_b      4f3+     135 -  136
  123     N_b      4f1+     145 -  146
  124     N_b      4f3+     149 -  150


  Symmetry  B3g( 7)

  125     N_b      2py       19 -   20
  126     N_b      2py       25 -   26
  127     N_b      2py       31 -   32
  128     N_b      2py       37 -   38
  129     N_b      2py       43 -   44
  130     N_b      2py       49 -   50
  131     N_b      2py       55 -   56
  132     N_b      3d1-      61 +   62
  133     N_b      3d1-      71 +   72
  134     N_b      3d1-      81 +   82
  135     N_b      3d1-      91 +   92
  136     N_b      3d1-     101 +  102
  137     N_b      4f3-     109 -  110
  138     N_b      4f1-     113 -  114
  139     N_b      4f3-     123 -  124
  140     N_b      4f1-     127 -  128
  141     N_b      4f3-     137 -  138
  142     N_b      4f1-     141 -  142


  Symmetry  Au ( 8)

  143     N_b      3d2-      59 -   60
  144     N_b      3d2-      69 -   70
  145     N_b      3d2-      79 -   80
  146     N_b      3d2-      89 -   90
  147     N_b      3d2-      99 -  100
  148     N_b      4f2-     111 +  112
  149     N_b      4f2-     125 +  126
  150     N_b      4f2-     139 +  140

  Symmetries of electric field:  B3u(2)  B2u(3)  B1u(5)

  Symmetries of magnetic field:  B3g(7)  B2g(6)  B1g(4)


                     .---------------------------------------.
                     | Starting in Integral Section (HERMIT) |
                     `---------------------------------------'



 ***************************************************************************************
 ****************** Output from **INTEGRALS input processing (HERMIT) ******************
 ***************************************************************************************


 - Using defaults, no **INTEGRALS input found

 Default print level:        1

 Calculation of one-electron Hamiltonian integrals.

 Center of mass  (bohr):      0.000000000000      0.000000000000      0.000000000000
 Operator center (bohr):      0.000000000000      0.000000000000      0.000000000000
 Gauge origin    (bohr):      0.000000000000      0.000000000000      0.000000000000
 Dipole origin   (bohr):      0.000000000000      0.000000000000      0.000000000000


     ************************************************************************
     ************************** Output from HERINT **************************
     ************************************************************************



                      Nuclear contribution to dipole moments
                      --------------------------------------

                    All dipole components are zero by symmetry


  Total CPU  time used in HERMIT:   0.17 seconds
  Total wall time used in HERMIT:   0.17 seconds


                        .----------------------------------.
                        | End of Integral Section (HERMIT) |
                        `----------------------------------'



                   .--------------------------------------------.
                   | Starting in Wave Function Section (SIRIUS) |
                   `--------------------------------------------'


 *** Output from Huckel module :

     Using EWMO model:          F
     Using EHT  model:          T
     Number of Huckel orbitals each symmetry:    3    1    1    0    3    1    1    0

 Huckel EHT eigenvalues for symmetry :  1
          -15.703205      -1.363953      -0.476809

 Huckel EHT eigenvalues for symmetry :  2
           -0.648566

 Huckel EHT eigenvalues for symmetry :  3
           -0.648566

 Huckel EHT eigenvalues for symmetry :  5
          -15.694742      -0.814285      -0.224605

 Huckel EHT eigenvalues for symmetry :  6
           -0.368834

 Huckel EHT eigenvalues for symmetry :  7
           -0.368834

 **********************************************************************
 *SIRIUS* a direct, restricted step, second order MCSCF program       *
 **********************************************************************

 
     Date and time (Linux)  : Wed Jan 11 15:39:27 2023
     Host name              : cn021                                   

 Title lines from ".mol" input file:
     blah                                                                    
     blah                                                                    

 Print level on unit LUPRI =   2 is   0
 Print level on unit LUW4  =   2 is   5

@    Restricted, closed shell Hartree-Fock calculation.

@    Time-dependent Hartree-Fock calculation (random phase approximation).
 Fock matrices are calculated directly and in parallel without use of integrals on disk.

 Initial molecular orbitals are obtained according to
 ".MOSTART EHT   " input option

     Wave function specification
     ============================
@    Wave function type        --- HF ---
@    Number of closed shell electrons          14
@    Number of electrons in active shells       0
@    Total charge of the molecule               0

@    Spin multiplicity and 2 M_S                1         0
@    Total number of symmetries                 8 (point group: D2h)
@    Reference state symmetry                   1 (irrep name : Ag )

     Orbital specifications
     ======================
@    Abelian symmetry species          All |    1    2    3    4    5    6    7    8
@                                          |  Ag   B3u  B2u  B1g  B1u  B2g  B3g  Au 
                                       --- |  ---  ---  ---  ---  ---  ---  ---  ---
@    Total number of orbitals          150 |   31   18   18    8   31   18   18    8
@    Number of basis functions         150 |   31   18   18    8   31   18   18    8

      ** Automatic occupation of RHF orbitals **

      -- Initial occupation of symmetries is determined from extended Huckel guess.           
      -- Initial occupation of symmetries is :
@    Occupied SCF orbitals               7 |    3    1    1    0    2    0    0    0

     Maximum number of Fock   iterations      0
     Maximum number of DIIS   iterations     60
     Maximum number of QC-SCF iterations     60
     Threshold for SCF convergence     1.00D-05


 ***********************************************
 ***** DIIS acceleration of SCF iterations *****
 ***********************************************

 C1-DIIS algorithm; max error vectors =    8

 Automatic occupation of symmetries with  14 electrons.

 Iter     Total energy    Error norm  Delta(E)    SCF occupation
 -----------------------------------------------------------------------------
   1  Screening settings (-IFTHRS, JTDIIS, DIFDEN, times)   -7    1    T  4.39D-01  4.39D-01
@  1  -108.647580560       3.19D+00  -1.09D+02     3   1   1   0   2   0   0   0
      Virial theorem: -V/T =      2.009219
@    MULPOP   N_b _1  0.00; N_b _2  0.00; 
   1  Level shift: doubly occupied orbital energies shifted by -2.00D-01
 -----------------------------------------------------------------------------
   2  Screening settings (-IFTHRS, JTDIIS, DIFDEN, times)   -7    2    T  4.03D-01  4.03D-01
@  2  -108.969918139       6.23D-01  -3.22D-01     3   1   1   0   2   0   0   0
      Virial theorem: -V/T =      1.996212
@    MULPOP   N_b _1  0.00; N_b _2  0.00; 
   2  Level shift: doubly occupied orbital energies shifted by -5.00D-02
 -----------------------------------------------------------------------------
   3  Screening settings (-IFTHRS, JTDIIS, DIFDEN, times)   -7    3    T  3.67D-01  3.67D-01
@  3  -108.984499702       1.17D-01  -1.46D-02     3   1   1   0   2   0   0   0
      Virial theorem: -V/T =      2.002561
@    MULPOP   N_b _1  0.00; N_b _2  0.00; 
   3  Level shift: doubly occupied orbital energies shifted by -1.25D-02
 -----------------------------------------------------------------------------
   4  Screening settings (-IFTHRS, JTDIIS, DIFDEN, times)  -11    4    F  3.59D-01  3.59D-01
@  4  -108.985657285       2.68D-02  -1.16D-03     3   1   1   0   2   0   0   0
      Virial theorem: -V/T =      2.001919
@    MULPOP   N_b _1  0.00; N_b _2  0.00; 
 -----------------------------------------------------------------------------
   5  Screening settings (-IFTHRS, JTDIIS, DIFDEN, times)  -11    5    T  3.81D-01  3.81D-01
@  5  -108.985729897       3.94D-03  -7.26D-05     3   1   1   0   2   0   0   0
      Virial theorem: -V/T =      2.002144
@    MULPOP   N_b _1 -0.00; N_b _2 -0.00; 
 -----------------------------------------------------------------------------
   6  Screening settings (-IFTHRS, JTDIIS, DIFDEN, times)  -11    6    T  3.45D-01  3.45D-01
@  6  -108.985731832       4.59D-04  -1.93D-06     3   1   1   0   2   0   0   0
      Virial theorem: -V/T =      2.002127
@    MULPOP   N_b _1  0.00; N_b _2  0.00; 
 -----------------------------------------------------------------------------
   7  Screening settings (-IFTHRS, JTDIIS, DIFDEN, times)  -11    7    T  3.64D-01  3.64D-01
@  7  -108.985731855       4.34D-05  -2.29D-08     3   1   1   0   2   0   0   0
      Virial theorem: -V/T =      2.002132
@    MULPOP   N_b _1 -0.00; N_b _2 -0.00; 
 -----------------------------------------------------------------------------
   8  Screening settings (-IFTHRS, JTDIIS, DIFDEN, times)  -11    8    T  3.68D-01  3.67D-01
@  8  -108.985731855       6.69D-06  -2.16D-10     3   1   1   0   2   0   0   0

@ *** DIIS converged in   8 iterations !
@     Converged SCF energy, gradient:   -108.985731854818    6.69D-06
    - total time used in SIRFCK :              0.00 seconds


 *** SCF orbital energy analysis ***

 Only the 20 lowest virtual orbital energies printed in each symmetry.

 Number of electrons :   14
 Orbital occupations :    3    1    1    0    2    0    0    0

 Sym       Hartree-Fock orbital energies

1 Ag    -15.68459831    -1.47231801    -0.63473724     0.02553282     0.04681004
          0.12741036     0.15217314     0.17332261     0.33684509     0.50005263
          0.50642732     0.62651837     0.62769014     1.01122335     1.19521649
          1.42852019     1.76507637     1.88251544     2.49581902     3.97973372
          4.10410815     4.50523690     5.14161499

2 B3u    -0.61431515     0.03256520     0.15605969     0.20032338     0.49525633
          0.52734552     0.65823186     1.01405628     1.59677531     1.61251365
          2.18526375     3.26714851     4.61546043     4.81193861     5.65532683
         20.69945839    39.06473600   108.86390063

3 B2u    -0.61431515     0.03256520     0.15605969     0.20032338     0.49525633
          0.52734552     0.65823186     1.01405628     1.59677531     1.61251365
          2.18526375     3.26714851     4.61546043     4.81193861     5.65532683
         20.69945839    39.06473600   108.86390063

4 B1g     0.15217314     0.50642732     0.62651837     1.42852019     1.88251544
          4.50523690     5.14161499    39.05426354

5 B1u   -15.68106231    -0.77976424     0.02268267     0.07456232     0.18102812
          0.19162798     0.19263725     0.40009551     0.51779843     0.52495309
          0.82116504     0.86372605     0.96458616     1.21880732     1.74510033
          1.75614979     2.06090957     2.36147247     2.54283757     4.57058144
          4.92105814     5.31708638

6 B2g     0.04491513     0.12613552     0.19980084     0.28273869     0.59760815
          0.62268741     0.69357397     1.32114237     1.79381024     1.91186469
          2.69194109     4.27953890     5.15234072     5.52838192     6.86123902
         21.54961530    39.43602521   109.49479863

7 B3g     0.04491513     0.12613552     0.19980084     0.28273869     0.59760815
          0.62268741     0.69357397     1.32114237     1.79381024     1.91186469
          2.69194109     4.27953890     5.15234072     5.52838192     6.86123902
         21.54961530    39.43602521   109.49479863

8 Au      0.19162798     0.52495309     0.96458616     1.75614979     2.36147247
          5.31708638     5.75607652    39.16586736

    E(LUMO) :     0.02268267 au (symmetry 5)
  - E(HOMO) :    -0.61431515 au (symmetry 3)
  ------------------------------------------
    gap     :     0.63699782 au

 --- Writing SIRIFC interface file

 CPU and wall time for SCF :       3.045       3.049


                       .-----------------------------------.
                       | --- Final results from SIRIUS --- |
                       `-----------------------------------'


@    Spin multiplicity:           1
@    Spatial symmetry:            1 ( irrep  Ag  in D2h )
@    Total charge of molecule:    0

@    Final HF energy:            -108.985731854818                 
@    Nuclear repulsion:            23.622199082109
@    Electronic energy:          -132.607930936927

@    Final gradient norm:           0.000006690427

 
     Date and time (Linux)  : Wed Jan 11 15:39:30 2023
     Host name              : cn021                                   

File label for MO orbitals:  11Jan23   FOCKDIIS

 (Only coefficients > 0.0100 are printed.)

 Molecular orbitals for symmetry species 1  (Ag )
 ------------------------------------------------

    Orbital         1        2        3        4        5        6        7
   1 N_b :1s     0.7061  -0.0367   0.0179   0.0313   0.0022  -0.0659  -0.0000
   2 N_b :1s    -0.0024   0.5426   0.2999   0.1772   0.0359  -0.1703  -0.0000
   3 N_b :1s     0.0018   0.0207  -0.0163  -0.0233   0.0035   0.0453   0.0000
   4 N_b :1s     0.0018  -0.1000   0.1390   0.3237   0.2801  -1.1148   0.0000
   5 N_b :1s    -0.0006  -0.0126   0.0076   0.0125  -0.0000  -0.0263  -0.0000
   7 N_b :1s     0.0002   0.0038   0.0259   0.9830   1.1350  -3.2289  -0.0000
   8 N_b :1s    -0.0002  -0.0008  -0.0055  -1.2324  -0.4313   1.7697  -0.0000
   9 N_b :2pz   -0.0039  -0.3396   0.6958   0.0489   0.0182   0.0893   0.0000
  10 N_b :2pz    0.0021   0.0425  -0.0495  -0.0280  -0.0163   0.0840  -0.0000
  11 N_b :2pz    0.0001   0.0703  -0.0551   0.2402   0.1284  -0.7501  -0.0000
  14 N_b :2pz    0.0016   0.0046   0.0501   2.2336   2.2041  -8.5356   0.0000
  15 N_b :2pz    0.0004   0.0006   0.0035  -0.9009   3.6454  -1.3049   0.0000
  18 N_b :3d0    0.0004   0.0186  -0.0175   0.0015   0.0017  -0.0059  -0.0000
  20 N_b :3d0   -0.0000   0.0292  -0.0219  -0.0192  -0.0080   0.0676   0.0000
  21 N_b :3d2+  -0.0000  -0.0000  -0.0000  -0.0000  -0.0000  -0.0000   0.0373
  22 N_b :3d0    0.0008   0.0108  -0.0221  -0.1879  -0.0753   0.5979  -0.0000
  23 N_b :3d2+   0.0000   0.0000   0.0000   0.0000   0.0000   0.0000  -0.1102
  24 N_b :3d0   -0.0006  -0.0015  -0.0122  -0.5718  -0.7292   2.4955  -0.0000
  25 N_b :3d2+  -0.0000  -0.0000  -0.0000  -0.0000  -0.0000  -0.0000   0.5645
  28 N_b :4f0    0.0000  -0.0054   0.0031   0.0174   0.0042  -0.0523  -0.0000
  30 N_b :4f0   -0.0002  -0.0010   0.0038   0.0484   0.0381  -0.1713   0.0000
  31 N_b :4f2+   0.0000   0.0000   0.0000   0.0000   0.0000   0.0000  -0.0153

    Orbital         8        9       10       11       12       13
   1 N_b :1s    -0.1021  -0.0695  -0.3695   0.0000  -0.0000   0.0493
   2 N_b :1s    -0.4389  -0.5149  -1.5151  -0.0000   0.0000   0.2146
   3 N_b :1s     0.0908   0.0031   0.3023  -0.0000   0.0000  -0.0141
   4 N_b :1s    -0.3552  -2.8837  -2.8150   0.0000  -0.0000  -0.9130
   5 N_b :1s    -0.0434  -0.0199  -0.1536   0.0000  -0.0000   0.0174
   6 N_b :1s    -0.0063  -0.0077  -0.0251   0.0000  -0.0000   0.0047
   7 N_b :1s     0.0044  -1.5784   0.2986  -0.0000   0.0000  -0.3254
   8 N_b :1s     0.2660   1.3693   0.6819  -0.0000  -0.0000   0.2982
   9 N_b :2pz    0.0773  -0.1320  -0.1982  -0.0000  -0.0000  -0.0536
  10 N_b :2pz    0.0403   0.1665   0.2683   0.0000  -0.0000   0.0251
  11 N_b :2pz   -0.5098  -1.4506  -2.5253   0.0000   0.0000  -0.3359
  14 N_b :2pz   -1.9180 -10.8749  -6.9516   0.0000   0.0000  -2.1851
  15 N_b :2pz    1.6527  -1.1063   0.4360   0.0000  -0.0000  -0.3364
  18 N_b :3d0   -0.0075  -0.0174   0.0031   0.0000  -0.0000  -0.0016
  19 N_b :3d2+   0.0000   0.0000  -0.0000   0.0317   0.0023  -0.0000
  20 N_b :3d0    0.0285   0.0973   0.2370  -0.0000   0.0000  -0.0148
  21 N_b :3d2+  -0.0000   0.0000   0.0000  -0.0452  -0.0532   0.0000
  22 N_b :3d0    0.4965   0.9109   2.4424   0.0000  -0.0000  -0.3004
  23 N_b :3d2+   0.0000  -0.0000  -0.0000   0.7142   0.4461  -0.0000
  24 N_b :3d0   -0.2212   3.2047   1.3879  -0.0000  -0.0000   0.7548
  25 N_b :3d2+  -0.0000   0.0000   0.0000  -0.3358  -0.0921   0.0000
  26 N_b :4f0    0.0002  -0.0020  -0.0091  -0.0000  -0.0000  -0.0212
  27 N_b :4f2+   0.0000   0.0000   0.0000  -0.0065   0.0236   0.0000
  28 N_b :4f0   -0.0509  -0.0899  -0.2320   0.0000  -0.0000   0.1417
  29 N_b :4f2+   0.0000   0.0000  -0.0000  -0.0037  -0.1134  -0.0000
  30 N_b :4f0   -0.0628  -0.2340  -0.3695  -0.0000   0.0000  -1.0768
  31 N_b :4f2+   0.0000  -0.0000  -0.0000   0.0510   1.1635  -0.0000

 Molecular orbitals for symmetry species 2  (B3u)
 ------------------------------------------------

    Orbital         1        2        3        4        5        6        7
   1 N_b :2px    0.6246  -0.0322   0.1528   0.0913  -0.0000   0.0882  -0.2689
   2 N_b :2px   -0.0045  -0.0070  -0.0327  -0.0499   0.0000   0.0615  -0.2217
   3 N_b :2px   -0.0417   0.0434   0.1651   0.5720   0.0000  -1.2129   1.7961
   6 N_b :2px    0.0058  -0.1605  -0.9335   0.0211  -0.0000   0.1384  -0.7164
   7 N_b :2px    0.0006   0.5849   0.4058  -0.0109   0.0000   0.0219   0.1771
   9 N_b :3d1+  -0.0200   0.0019  -0.0038   0.0020   0.0000  -0.0056   0.0384
  10 N_b :3d1+  -0.0361  -0.0009  -0.0266  -0.0268   0.0000   0.0644  -0.0587
  11 N_b :3d1+  -0.0116   0.0335   0.0873   0.3638  -0.0000  -0.8868   1.5104
  12 N_b :3d1+  -0.0024  -0.0518  -0.7201   2.1341  -0.0000  -1.6395   0.3525
  13 N_b :4f1+   0.0081   0.0000   0.0052  -0.0007  -0.0000   0.0108   0.0061
  14 N_b :4f3+  -0.0000   0.0000  -0.0000  -0.0000  -0.0229  -0.0000   0.0000
  15 N_b :4f1+   0.0009  -0.0037  -0.0199   0.0201   0.0000  -0.0626  -0.0969
  16 N_b :4f3+   0.0000  -0.0000   0.0000   0.0000   0.1002   0.0000  -0.0000
  17 N_b :4f1+   0.0034  -0.0135   0.0280  -0.4972  -0.0000   1.5299  -0.7653
  18 N_b :4f3+  -0.0000   0.0000  -0.0000  -0.0000  -0.5747  -0.0000   0.0000

    Orbital         8        9       10       11
   1 N_b :2px   -0.3263   0.0000  -0.0410   0.1319
   2 N_b :2px   -0.3186  -0.0000   0.1860   0.9552
   3 N_b :2px   -0.9513   0.0000   1.0363  -0.4126
   6 N_b :2px    0.2260   0.0000  -0.3858  -0.0115
   7 N_b :2px    0.0049  -0.0000   0.0735   0.0109
   9 N_b :3d1+  -0.0255  -0.0000  -0.0226   0.0304
  10 N_b :3d1+   0.0924   0.0000  -0.8094   0.2943
  11 N_b :3d1+  -2.4466   0.0000   2.1767   0.4713
  12 N_b :3d1+  -0.8818   0.0000   0.1853  -0.3560
  13 N_b :4f1+   0.0038   0.0000   0.0446   0.0706
  14 N_b :4f3+   0.0000  -0.0701  -0.0000  -0.0000
  15 N_b :4f1+  -0.0015  -0.0000  -0.6005  -1.4107
  16 N_b :4f3+  -0.0000   0.7324   0.0000   0.0000
  17 N_b :4f1+   1.6480  -0.0000  -0.8447   0.2158
  18 N_b :4f3+   0.0000  -0.2892  -0.0000  -0.0000

 Molecular orbitals for symmetry species 3  (B2u)
 ------------------------------------------------

    Orbital         1        2        3        4        5        6        7
   1 N_b :2py    0.6246  -0.0322   0.1528   0.0913   0.0000   0.0882  -0.2689
   2 N_b :2py   -0.0045  -0.0070  -0.0327  -0.0499  -0.0000   0.0615  -0.2217
   3 N_b :2py   -0.0417   0.0434   0.1651   0.5720  -0.0000  -1.2129   1.7961
   6 N_b :2py    0.0058  -0.1605  -0.9335   0.0211   0.0000   0.1384  -0.7164
   7 N_b :2py    0.0006   0.5849   0.4058  -0.0109  -0.0000   0.0219   0.1771
   9 N_b :3d1-  -0.0200   0.0019  -0.0038   0.0020  -0.0000  -0.0056   0.0384
  10 N_b :3d1-  -0.0361  -0.0009  -0.0266  -0.0268  -0.0000   0.0644  -0.0587
  11 N_b :3d1-  -0.0116   0.0335   0.0873   0.3638   0.0000  -0.8868   1.5104
  12 N_b :3d1-  -0.0024  -0.0518  -0.7201   2.1341   0.0000  -1.6395   0.3525
  13 N_b :4f3-  -0.0000   0.0000  -0.0000  -0.0000  -0.0229  -0.0000   0.0000
  14 N_b :4f1-   0.0081   0.0000   0.0052  -0.0007   0.0000   0.0108   0.0061
  15 N_b :4f3-   0.0000   0.0000  -0.0000   0.0000   0.1002   0.0000  -0.0000
  16 N_b :4f1-   0.0009  -0.0037  -0.0199   0.0201   0.0000  -0.0626  -0.0969
  17 N_b :4f3-   0.0000   0.0000   0.0000   0.0000  -0.5747   0.0000  -0.0000
  18 N_b :4f1-   0.0034  -0.0135   0.0280  -0.4972  -0.0000   1.5299  -0.7653

    Orbital         8        9       10       11
   1 N_b :2py   -0.3263  -0.0000  -0.0410   0.1319
   2 N_b :2py   -0.3186   0.0000   0.1860   0.9552
   3 N_b :2py   -0.9513   0.0000   1.0363  -0.4126
   6 N_b :2py    0.2260  -0.0000  -0.3858  -0.0115
   7 N_b :2py    0.0049   0.0000   0.0735   0.0109
   9 N_b :3d1-  -0.0255   0.0000  -0.0226   0.0304
  10 N_b :3d1-   0.0924  -0.0000  -0.8094   0.2943
  11 N_b :3d1-  -2.4466  -0.0000   2.1767   0.4713
  12 N_b :3d1-  -0.8818  -0.0000   0.1853  -0.3560
  13 N_b :4f3-   0.0000  -0.0701  -0.0000  -0.0000
  14 N_b :4f1-   0.0038  -0.0000   0.0446   0.0706
  15 N_b :4f3-  -0.0000   0.7324   0.0000   0.0000
  16 N_b :4f1-  -0.0015   0.0000  -0.6005  -1.4107
  17 N_b :4f3-  -0.0000  -0.2892   0.0000   0.0000
  18 N_b :4f1-   1.6480   0.0000  -0.8447   0.2158

 Molecular orbitals for symmetry species 4  (B1g)
 ------------------------------------------------

    Orbital         1        2        3        4        5        6        7
   2 N_b :3d2-  -0.0022   0.0317   0.0023   0.0061  -0.0139  -0.3387  -0.7919
   3 N_b :3d2-   0.0373  -0.0452  -0.0532   0.7143   0.5227   0.2026   0.5495
   4 N_b :3d2-  -0.1102   0.7142   0.4461  -0.4884  -0.3317  -0.0740  -0.2448
   5 N_b :3d2-   0.5645  -0.3358  -0.0921   0.1651   0.0715   0.0359   0.0671
   6 N_b :4f2-   0.0007  -0.0065   0.0236   0.0133  -0.0728   0.6843  -0.3390
   7 N_b :4f2-  -0.0012  -0.0037  -0.1134  -0.1720   0.8272  -0.4269   0.2544
   8 N_b :4f2-  -0.0153   0.0510   1.1635   0.1218  -0.4721   0.1936  -0.1184

    Orbital         8
   1 N_b :3d2-   0.7215
   2 N_b :3d2-  -0.1832
   3 N_b :3d2-   0.0951
   4 N_b :3d2-  -0.0423
   5 N_b :3d2-   0.0131
   7 N_b :4f2-   0.0124

 Molecular orbitals for symmetry species 5  (B1u)
 ------------------------------------------------

    Orbital         1        2        3        4        5        6        7
   1 N_b :1s     0.7048   0.0063   0.0037   0.0055  -0.0323   0.0000  -0.0416
   2 N_b :1s    -0.0092   0.6673   0.0357  -0.0329  -0.2519  -0.0000  -0.1535
   3 N_b :1s     0.0034  -0.0032  -0.0064  -0.0143   0.0423  -0.0000   0.0351
   4 N_b :1s     0.0438   0.2445   1.3145   2.7746  -5.6672   0.0000   3.4358
   5 N_b :1s    -0.0014   0.0014   0.0014   0.0027  -0.0126  -0.0000  -0.0179
   7 N_b :1s     0.0108  -0.0447   6.7336  14.8780 -33.9846  -0.0000  14.6770
   8 N_b :1s     0.0030  -0.0447  16.4231  32.0093 -34.5673  -0.0000   7.7529
   9 N_b :2pz   -0.0025   0.3216   0.0153  -0.0075  -0.0741  -0.0000   0.0231
  10 N_b :2pz    0.0019  -0.0256  -0.0520  -0.1109   0.2471   0.0000  -0.0228
  11 N_b :2pz   -0.0163  -0.1202  -0.7306  -1.5898   3.3358  -0.0000  -1.3543
  14 N_b :2pz   -0.0024   0.0196  -2.0671  -4.6810  10.5269   0.0000  -3.6462
  15 N_b :2pz   -0.0002   0.0036  -2.3370  -3.2722   2.9225   0.0000  -0.7206
  20 N_b :3d0    0.0000   0.0001   0.0345   0.0799  -0.1643   0.0000   0.0158
  21 N_b :3d2+  -0.0000  -0.0000  -0.0000   0.0000   0.0000   0.0331   0.0000
  22 N_b :3d0    0.0044   0.0225   0.1705   0.3665  -0.6863   0.0000   0.6304
  23 N_b :3d2+   0.0000  -0.0000  -0.0000   0.0000   0.0000  -0.6243  -0.0000
  24 N_b :3d0    0.0004  -0.0013   0.2026   0.3978  -0.4169  -0.0000   2.4464
  25 N_b :3d2+   0.0000  -0.0000  -0.0000   0.0000   0.0000  -2.9092  -0.0000
  26 N_b :4f0   -0.0003  -0.0014  -0.0028  -0.0059   0.0115  -0.0000  -0.0056
  28 N_b :4f0    0.0003  -0.0007  -0.0053  -0.0136   0.0372   0.0000   0.0327
  29 N_b :4f2+   0.0000   0.0000   0.0000  -0.0000  -0.0000  -0.0270   0.0000
  30 N_b :4f0   -0.0010  -0.0053  -0.0277  -0.0492  -0.0135  -0.0000  -0.4979
  31 N_b :4f2+  -0.0000   0.0000   0.0000  -0.0000  -0.0000   0.5109   0.0000

    Orbital         8        9       10       11       12
   1 N_b :1s     0.0191   0.1560  -0.0000  -0.2814  -0.0818
   2 N_b :1s    -0.1313   0.6236   0.0000  -1.4562  -0.0211
   3 N_b :1s    -0.0633  -0.1447   0.0000   0.3003   0.0273
   4 N_b :1s    14.2703  -7.2996   0.0000   4.8692  46.4430
   5 N_b :1s     0.0104   0.0666  -0.0000  -0.1180  -0.0411
   6 N_b :1s     0.0016   0.0100  -0.0000  -0.0171  -0.0042
   7 N_b :1s    64.3487  -1.8845  -0.0000 -25.2332  54.6560
   8 N_b :1s    29.0752   0.3294   0.0000  -7.8668  17.4212
   9 N_b :2pz    0.0074   0.1155   0.0000   0.3522   0.2644
  10 N_b :2pz   -0.5257  -0.0930  -0.0000   0.4193  -1.1695
  11 N_b :2pz   -8.3579   2.0017  -0.0000   1.1750 -22.8965
  12 N_b :2pz   -0.0049  -0.0006   0.0000   0.0023  -0.0115
  14 N_b :2pz  -16.4798   0.3917   0.0000   5.6851 -12.8537
  15 N_b :2pz   -2.2645   0.0121  -0.0000   0.5776  -1.3314
  18 N_b :3d0    0.0111   0.0067   0.0000   0.0257   0.0081
  20 N_b :3d0    0.3894   0.1142   0.0000  -0.2739   0.7702
  21 N_b :3d2+   0.0000   0.0000  -0.1222   0.0000  -0.0000
  22 N_b :3d0    1.9582  -1.5553   0.0000   2.7314   6.8509
  23 N_b :3d2+   0.0000  -0.0000   2.1306  -0.0000  -0.0000
  24 N_b :3d0    1.5003  -1.6166   0.0000   0.3783   1.6246
  25 N_b :3d2+   0.0000  -0.0000   2.1139  -0.0000  -0.0000
  26 N_b :4f0   -0.0275   0.0060   0.0000   0.0253  -0.0481
  28 N_b :4f0   -0.0692  -0.1036  -0.0000   0.0407  -0.1658
  29 N_b :4f2+  -0.0000  -0.0000   0.0577  -0.0000   0.0000
  30 N_b :4f0   -0.2651   1.7202  -0.0000  -1.9546  -1.8266
  31 N_b :4f2+  -0.0000   0.0000  -1.7994   0.0000   0.0000

 Molecular orbitals for symmetry species 6  (B2g)
 ------------------------------------------------

    Orbital         1        2        3        4        5        6        7
   1 N_b :2px    0.0371   0.4127  -0.4201  -0.2761   0.3946  -0.0000   0.1963
   2 N_b :2px   -0.0097   0.0212   0.0348   0.0178   0.1756   0.0000  -0.1237
   3 N_b :2px   -0.1412   0.4220  -0.2843   3.8744   8.1312  -0.0000   5.6028
   6 N_b :2px    3.4961  -7.3167 -34.3509  59.3594  14.8648   0.0000  37.6607
   7 N_b :2px    4.6364  -2.0141  -2.4292   0.5698  -0.8578  -0.0000   0.7510
   9 N_b :3d1+   0.0001   0.0087  -0.0063   0.0050   0.0198   0.0000   0.0116
  10 N_b :3d1+   0.0173  -0.0024  -0.0406  -0.2122  -0.4525  -0.0000  -0.1572
  11 N_b :3d1+   0.0921  -0.1542  -0.0028  -2.2374  -4.6079   0.0000  -2.4298
  12 N_b :3d1+  -0.9654   2.2448   8.7601 -13.6981  -2.8467  -0.0000  -8.8092
  13 N_b :4f1+   0.0002  -0.0036  -0.0005   0.0058  -0.0065  -0.0000   0.0191
  14 N_b :4f3+   0.0000   0.0000  -0.0000  -0.0000   0.0000   0.0231   0.0000
  15 N_b :4f1+  -0.0142   0.0217   0.0386   0.1384   0.3773   0.0000   0.0194
  16 N_b :4f3+  -0.0000  -0.0000   0.0000   0.0000  -0.0000  -0.1498  -0.0000
  17 N_b :4f1+   0.0122  -0.0312  -0.1805   0.5666   0.4450  -0.0000   1.7285
  18 N_b :4f3+   0.0000   0.0000  -0.0000  -0.0000   0.0000   1.5713   0.0000

    Orbital         8        9       10
   1 N_b :2px    0.6354  -0.0030   0.0000
   2 N_b :2px   -0.0449   0.9418  -0.0000
   3 N_b :2px  -16.6252   0.5158  -0.0000
   4 N_b :2px   -0.0004   0.0128   0.0000
   6 N_b :2px  -21.2314  -9.9942  -0.0000
   7 N_b :2px    0.2704  -0.4484   0.0000
   9 N_b :3d1+  -0.0534   0.0302  -0.0000
  10 N_b :3d1+   1.0500  -0.4257   0.0000
  11 N_b :3d1+   7.0255  -0.4221   0.0000
  12 N_b :3d1+   4.5314   2.4727   0.0000
  13 N_b :4f1+  -0.0249  -0.0454   0.0000
  14 N_b :4f3+   0.0000   0.0000  -0.0863
  15 N_b :4f1+  -0.7547   1.1167  -0.0000
  16 N_b :4f3+  -0.0000  -0.0000   1.1490
  17 N_b :4f1+  -1.2796  -0.5946  -0.0000
  18 N_b :4f3+   0.0000   0.0000  -0.6533

 Molecular orbitals for symmetry species 7  (B3g)
 ------------------------------------------------

    Orbital         1        2        3        4        5        6        7
   1 N_b :2py    0.0371   0.4127  -0.4201  -0.2761   0.3946   0.0000   0.1963
   2 N_b :2py   -0.0097   0.0212   0.0348   0.0178   0.1756  -0.0000  -0.1237
   3 N_b :2py   -0.1412   0.4220  -0.2843   3.8744   8.1312  -0.0000   5.6028
   6 N_b :2py    3.4961  -7.3167 -34.3509  59.3594  14.8648  -0.0000  37.6607
   7 N_b :2py    4.6364  -2.0141  -2.4292   0.5698  -0.8578   0.0000   0.7510
   9 N_b :3d1-   0.0001   0.0087  -0.0063   0.0050   0.0198  -0.0000   0.0116
  10 N_b :3d1-   0.0173  -0.0024  -0.0406  -0.2122  -0.4525   0.0000  -0.1572
  11 N_b :3d1-   0.0921  -0.1542  -0.0028  -2.2374  -4.6079  -0.0000  -2.4298
  12 N_b :3d1-  -0.9654   2.2448   8.7601 -13.6981  -2.8467   0.0000  -8.8092
  13 N_b :4f3-  -0.0000  -0.0000   0.0000   0.0000  -0.0000   0.0231  -0.0000
  14 N_b :4f1-   0.0002  -0.0036  -0.0005   0.0058  -0.0065   0.0000   0.0191
  15 N_b :4f3-   0.0000   0.0000  -0.0000  -0.0000   0.0000  -0.1498   0.0000
  16 N_b :4f1-  -0.0142   0.0217   0.0386   0.1384   0.3773  -0.0000   0.0194
  17 N_b :4f3-  -0.0000  -0.0000   0.0000   0.0000  -0.0000   1.5713  -0.0000
  18 N_b :4f1-   0.0122  -0.0312  -0.1805   0.5666   0.4450   0.0000   1.7285

    Orbital         8        9       10
   1 N_b :2py    0.6354  -0.0030  -0.0000
   2 N_b :2py   -0.0449   0.9418   0.0000
   3 N_b :2py  -16.6252   0.5158   0.0000
   4 N_b :2py   -0.0004   0.0128  -0.0000
   6 N_b :2py  -21.2314  -9.9942   0.0000
   7 N_b :2py    0.2704  -0.4484   0.0000
   9 N_b :3d1-  -0.0534   0.0302   0.0000
  10 N_b :3d1-   1.0500  -0.4257  -0.0000
  11 N_b :3d1-   7.0255  -0.4221  -0.0000
  12 N_b :3d1-   4.5314   2.4727  -0.0000
  13 N_b :4f3-  -0.0000  -0.0000  -0.0863
  14 N_b :4f1-  -0.0249  -0.0454  -0.0000
  15 N_b :4f3-   0.0000   0.0000   1.1490
  16 N_b :4f1-  -0.7547   1.1167   0.0000
  17 N_b :4f3-  -0.0000  -0.0000  -0.6533
  18 N_b :4f1-  -1.2796  -0.5946   0.0000

 Molecular orbitals for symmetry species 8  (Au )
 ------------------------------------------------

    Orbital         1        2        3        4        5        6        7
   2 N_b :3d2-   0.0041   0.0065   0.0349   0.0259  -0.0084  -0.7977   0.4507
   3 N_b :3d2-  -0.0331  -0.1222  -0.1067   0.2544   1.6588   1.0415  -0.5325
   4 N_b :3d2-   0.6243   2.1306   5.8512  -4.0632  -0.6759  -1.7054  -0.2992
   5 N_b :3d2-   2.9092   2.1139   1.3383  -0.2088  -0.5386  -0.2638   0.1608
   6 N_b :4f2-  -0.0016  -0.0049   0.0213  -0.0790   0.0594  -0.4596  -0.9183
   7 N_b :4f2-   0.0270   0.0577  -0.1525   1.2465  -1.5253  -0.0672   0.7686
   8 N_b :4f2-  -0.5109  -1.7994  -2.5098   1.1785   0.5921   0.6202  -0.0520

    Orbital         8
   1 N_b :3d2-   0.7225
   2 N_b :3d2-  -0.2018
   3 N_b :3d2-   0.1887
   4 N_b :3d2-  -0.2225
   5 N_b :3d2-  -0.0554
   6 N_b :4f2-   0.0123
   7 N_b :4f2-  -0.0709
   8 N_b :4f2-   0.0960

  Total CPU  time used in SIRIUS :   3.06 seconds
  Total wall time used in SIRIUS :   3.07 seconds

 
     Date and time (Linux)  : Wed Jan 11 15:39:30 2023
     Host name              : cn021                                   


                     .---------------------------------------.
                     | End of Wave Function Section (SIRIUS) |
                     `---------------------------------------'



                 .------------------------------------------------.
                 | Starting in Dynamic Property Section (RESPONS) |
                 `------------------------------------------------'


 ----------------------------------------------------------------------------------------
  RESPONSE  -  an MCSCF, MC-srDFT, DFT, SOPPA and SOPPA-srDFT response property program
 ----------------------------------------------------------------------------------------


 -------- OUTPUT FROM RESPONSE INPUT PROCESSING --------




 Linear Response calculation
 ---------------------------

 Print level                                    : IPRLR  =   2
 Maximum number of iterations                   : MAXITL =  60
 Threshold for relative convergence             : THCLR  = 1.000D-03
 Maximum iterations in optimal orbital algorithm: MAXITO =   5

  9 B-frequencies  0.000000D+00  1.825019D-02  3.650038D-02  5.475056D-02  7.300075D-02
  9.125094D-02  1.095011D-01  1.277513D-01  1.460015D-01

    1 second order properties calculated with symmetry no.    2 and labels:

          XDIPLEN 

    1 second order properties calculated with symmetry no.    3 and labels:

          YDIPLEN 

    1 second order properties calculated with symmetry no.    5 and labels:

          ZDIPLEN 


   SCF energy         :     -108.985731854818368
 -- inactive part     :     -132.607930936927204
 -- nuclear repulsion :       23.622199082108835


                     ***************************************
                     *** RHF response calculation (TDHF) ***
                     ***************************************

 ----------------------------------------------------------------
 ----- Linear response calculation
 ----- Symmetry of excitation/property operator(s)    2  ( B3u)
 ----------------------------------------------------------------

 Number of excitations of this symmetry            0
 Number of response properties of this symmetry    1
 Number of C6/C8 properties of this symmetry       0


 Perturbation symmetry.     KSYMOP:           2
 Perturbation spin symmetry.TRPLET:           F
 Orbital variables.         KZWOPT:         123
 Configuration variables.   KZCONF:           0
 Total number of variables. KZVAR :         123


 RSPLR -- linear response calculation for symmetry 2  ( B3u)
 RSPLR -- operator label : XDIPLEN 
 RSPLR -- operator spin  :   0
 RSPLR -- frequencies    :     0.000000  0.018250  0.036500  0.054751  0.073001
                               0.091251  0.109501  0.127751  0.146002



 ---  SOLVING SETS OF LINEAR EQUATIONS FOR LINEAR RESPONSE PROPERTIES ---

 Operator symmetry = 2  ( B3u); triplet =   F

RSPORT:    1 out of    9 new trial vectors linear dependent

 ** RSPCTL MICROITERATION NUMBER    1

       No.  Residual tot.,    conf., and orb.    Bnorm      Frequency 
      ----------------------------------------------------------------
         1    8.22167D-01  0.00D+00  8.22D-01  2.34D+00    0.00000D+00
         2    8.22641D-01  0.00D+00  8.23D-01  2.34D+00    1.82502D-02
         3    8.24069D-01  0.00D+00  8.24D-01  2.35D+00    3.65004D-02
         4    8.26467D-01  0.00D+00  8.26D-01  2.37D+00    5.47506D-02
         5    8.29866D-01  0.00D+00  8.30D-01  2.39D+00    7.30008D-02
         6    8.34306D-01  0.00D+00  8.34D-01  2.42D+00    9.12509D-02
         7    8.39844D-01  0.00D+00  8.40D-01  2.46D+00    1.09501D-01
         8    8.46552D-01  0.00D+00  8.47D-01  2.50D+00    1.27751D-01
         9    8.54524D-01  0.00D+00  8.55D-01  2.56D+00    1.46002D-01

 ** RSPCTL MICROITERATION NUMBER    2

       No.  Residual tot.,    conf., and orb.    Bnorm      Frequency 
      ----------------------------------------------------------------
         1    6.15952D-02  0.00D+00  6.16D-02  2.40D+00    0.00000D+00
         2    6.16670D-02  0.00D+00  6.17D-02  2.40D+00    1.82502D-02
         3    6.18836D-02  0.00D+00  6.19D-02  2.41D+00    3.65004D-02
         4    6.22485D-02  0.00D+00  6.22D-02  2.43D+00    5.47506D-02
         5    6.27680D-02  0.00D+00  6.28D-02  2.45D+00    7.30008D-02
         6    6.34513D-02  0.00D+00  6.35D-02  2.48D+00    9.12509D-02
         7    6.43106D-02  0.00D+00  6.43D-02  2.52D+00    1.09501D-01
         8    6.53622D-02  0.00D+00  6.54D-02  2.57D+00    1.27751D-01
         9    6.66273D-02  0.00D+00  6.66D-02  2.62D+00    1.46002D-01

 ** RSPCTL MICROITERATION NUMBER    3

       No.  Residual tot.,    conf., and orb.    Bnorm      Frequency 
      ----------------------------------------------------------------
         1    5.61850D-03  0.00D+00  5.62D-03  2.40D+00    0.00000D+00
         2    5.62699D-03  0.00D+00  5.63D-03  2.40D+00    1.82502D-02
         3    5.65259D-03  0.00D+00  5.65D-03  2.41D+00    3.65004D-02
         4    5.69575D-03  0.00D+00  5.70D-03  2.43D+00    5.47506D-02
         5    5.75723D-03  0.00D+00  5.76D-03  2.45D+00    7.30008D-02
         6    5.83817D-03  0.00D+00  5.84D-03  2.48D+00    9.12509D-02
         7    5.94008D-03  0.00D+00  5.94D-03  2.52D+00    1.09501D-01
         8    6.06501D-03  0.00D+00  6.07D-03  2.57D+00    1.27751D-01
         9    6.21557D-03  0.00D+00  6.22D-03  2.62D+00    1.46002D-01

 ** RSPCTL MICROITERATION NUMBER    4

       No.  Residual tot.,    conf., and orb.    Bnorm      Frequency 
      ----------------------------------------------------------------
         1    4.20148D-04  0.00D+00  4.20D-04  2.40D+00    0.00000D+00
         2    4.21133D-04  0.00D+00  4.21D-04  2.40D+00    1.82502D-02
         3    4.24100D-04  0.00D+00  4.24D-04  2.41D+00    3.65004D-02
         4    4.29086D-04  0.00D+00  4.29D-04  2.43D+00    5.47506D-02
         5    4.36158D-04  0.00D+00  4.36D-04  2.45D+00    7.30008D-02
         6    4.45410D-04  0.00D+00  4.45D-04  2.48D+00    9.12509D-02
         7    4.56974D-04  0.00D+00  4.57D-04  2.52D+00    1.09501D-01
         8    4.71025D-04  0.00D+00  4.71D-04  2.57D+00    1.27751D-01
         9    4.87796D-04  0.00D+00  4.88D-04  2.62D+00    1.46002D-01

 *** THE REQUESTED    9 SOLUTION VECTORS CONVERGED

 Convergence of RSP solution vectors, threshold = 1.00D-03
 ---------------------------------------------------------------
 (dimension of paired reduced space:   70)
 RSP solution vector no.    1; norm of residual   1.75D-04
 RSP solution vector no.    2; norm of residual   1.76D-04
 RSP solution vector no.    3; norm of residual   1.76D-04
 RSP solution vector no.    4; norm of residual   1.77D-04
 RSP solution vector no.    5; norm of residual   1.78D-04
 RSP solution vector no.    6; norm of residual   1.80D-04
 RSP solution vector no.    7; norm of residual   1.81D-04
 RSP solution vector no.    8; norm of residual   1.83D-04
 RSP solution vector no.    9; norm of residual   1.86D-04

 *** RSPCTL MICROITERATIONS CONVERGED


           Final output of second order properties from linear response
           ------------------------------------------------------------


@ Spin symmetry of operators: singlet

 Note that minus the linear response function: - << A; B >>(omega) is printed.
 The results are of quadratic accuracy using Sellers formula.

@ FREQUENCY INDEPENDENT SECOND ORDER PROPERTIES

@ -<< XDIPLEN  ; XDIPLEN  >> =  9.836996061564E+00

@ FREQUENCY DEPENDENT SECOND ORDER PROPERTIES WITH FREQUENCY :

@    a.u.:  1.8250188D-02
@    cm-1:  4.0054531D+03
@    eV  :  4.9661286D-01
@  kJ/mol:  4.7915860D+01
@    nm  :  2.4965964D+03

@ -<< XDIPLEN  ; XDIPLEN  >> =  9.843796376941E+00

@ FREQUENCY DEPENDENT SECOND ORDER PROPERTIES WITH FREQUENCY :

@    a.u.:  3.6500375D-02
@    cm-1:  8.0109063D+03
@    eV  :  9.9322573D-01
@  kJ/mol:  9.5831720D+01
@    nm  :  1.2482982D+03

@ -<< XDIPLEN  ; XDIPLEN  >> =  9.864272682646E+00

@ FREQUENCY DEPENDENT SECOND ORDER PROPERTIES WITH FREQUENCY :

@    a.u.:  5.4750563D-02
@    cm-1:  1.2016359D+04
@    eV  :  1.4898386D+00
@  kJ/mol:  1.4374758D+02
@    nm  :  8.3219881D+02

@ -<< XDIPLEN  ; XDIPLEN  >> =  9.898653483113E+00

@ FREQUENCY DEPENDENT SECOND ORDER PROPERTIES WITH FREQUENCY :

@    a.u.:  7.3000750D-02
@    cm-1:  1.6021813D+04
@    eV  :  1.9864515D+00
@  kJ/mol:  1.9166344D+02
@    nm  :  6.2414911D+02

@ -<< XDIPLEN  ; XDIPLEN  >> =  9.947327864991E+00

@ FREQUENCY DEPENDENT SECOND ORDER PROPERTIES WITH FREQUENCY :

@    a.u.:  9.1250938D-02
@    cm-1:  2.0027266D+04
@    eV  :  2.4830643D+00
@  kJ/mol:  2.3957930D+02
@    nm  :  4.9931929D+02

@ -<< XDIPLEN  ; XDIPLEN  >> =  1.001085844496E+01

@ FREQUENCY DEPENDENT SECOND ORDER PROPERTIES WITH FREQUENCY :

@    a.u.:  1.0950113D-01
@    cm-1:  2.4032719D+04
@    eV  :  2.9796772D+00
@  kJ/mol:  2.8749516D+02
@    nm  :  4.1609940D+02

@ -<< XDIPLEN  ; XDIPLEN  >> =  1.009000072340E+01

@ FREQUENCY DEPENDENT SECOND ORDER PROPERTIES WITH FREQUENCY :

@    a.u.:  1.2775131D-01
@    cm-1:  2.8038172D+04
@    eV  :  3.4762900D+00
@  kJ/mol:  3.3541102D+02
@    nm  :  3.5665663D+02

@ -<< XDIPLEN  ; XDIPLEN  >> =  1.018573024360E+01

@ FREQUENCY DEPENDENT SECOND ORDER PROPERTIES WITH FREQUENCY :

@    a.u.:  1.4600150D-01
@    cm-1:  3.2043625D+04
@    eV  :  3.9729029D+00
@  kJ/mol:  3.8332688D+02
@    nm  :  3.1207455D+02

@ -<< XDIPLEN  ; XDIPLEN  >> =  1.029927963967E+01


 Time used in linear response calculation is      4.30 CPU seconds for symmetry 2
 ----------------------------------------------------------------
 ----- Linear response calculation
 ----- Symmetry of excitation/property operator(s)    3  ( B2u)
 ----------------------------------------------------------------

 Number of excitations of this symmetry            0
 Number of response properties of this symmetry    1
 Number of C6/C8 properties of this symmetry       0


 Perturbation symmetry.     KSYMOP:           3
 Perturbation spin symmetry.TRPLET:           F
 Orbital variables.         KZWOPT:         123
 Configuration variables.   KZCONF:           0
 Total number of variables. KZVAR :         123


 RSPLR -- linear response calculation for symmetry 3  ( B2u)
 RSPLR -- operator label : YDIPLEN 
 RSPLR -- operator spin  :   0
 RSPLR -- frequencies    :     0.000000  0.018250  0.036500  0.054751  0.073001
                               0.091251  0.109501  0.127751  0.146002



 ---  SOLVING SETS OF LINEAR EQUATIONS FOR LINEAR RESPONSE PROPERTIES ---

 Operator symmetry = 3  ( B2u); triplet =   F

RSPORT:    1 out of    9 new trial vectors linear dependent

 ** RSPCTL MICROITERATION NUMBER    1

       No.  Residual tot.,    conf., and orb.    Bnorm      Frequency 
      ----------------------------------------------------------------
         1    8.04705D-01  0.00D+00  8.05D-01  2.34D+00    0.00000D+00
         2    8.05186D-01  0.00D+00  8.05D-01  2.34D+00    1.82502D-02
         3    8.06635D-01  0.00D+00  8.07D-01  2.35D+00    3.65004D-02
         4    8.09068D-01  0.00D+00  8.09D-01  2.37D+00    5.47506D-02
         5    8.12517D-01  0.00D+00  8.13D-01  2.39D+00    7.30008D-02
         6    8.17023D-01  0.00D+00  8.17D-01  2.42D+00    9.12509D-02
         7    8.22644D-01  0.00D+00  8.23D-01  2.46D+00    1.09501D-01
         8    8.29456D-01  0.00D+00  8.29D-01  2.50D+00    1.27751D-01
         9    8.37552D-01  0.00D+00  8.38D-01  2.55D+00    1.46002D-01

 ** RSPCTL MICROITERATION NUMBER    2

       No.  Residual tot.,    conf., and orb.    Bnorm      Frequency 
      ----------------------------------------------------------------
         1    6.52535D-02  0.00D+00  6.53D-02  2.40D+00    0.00000D+00
         2    6.53216D-02  0.00D+00  6.53D-02  2.40D+00    1.82502D-02
         3    6.55269D-02  0.00D+00  6.55D-02  2.41D+00    3.65004D-02
         4    6.58730D-02  0.00D+00  6.59D-02  2.43D+00    5.47506D-02
         5    6.63659D-02  0.00D+00  6.64D-02  2.45D+00    7.30008D-02
         6    6.70145D-02  0.00D+00  6.70D-02  2.48D+00    9.12509D-02
         7    6.78307D-02  0.00D+00  6.78D-02  2.52D+00    1.09501D-01
         8    6.88306D-02  0.00D+00  6.88D-02  2.57D+00    1.27751D-01
         9    7.00348D-02  0.00D+00  7.00D-02  2.62D+00    1.46002D-01

 ** RSPCTL MICROITERATION NUMBER    3

       No.  Residual tot.,    conf., and orb.    Bnorm      Frequency 
      ----------------------------------------------------------------
         1    6.79020D-03  0.00D+00  6.79D-03  2.40D+00    0.00000D+00
         2    6.79971D-03  0.00D+00  6.80D-03  2.40D+00    1.82502D-02
         3    6.82839D-03  0.00D+00  6.83D-03  2.41D+00    3.65004D-02
         4    6.87674D-03  0.00D+00  6.88D-03  2.43D+00    5.47506D-02
         5    6.94559D-03  0.00D+00  6.95D-03  2.45D+00    7.30008D-02
         6    7.03618D-03  0.00D+00  7.04D-03  2.48D+00    9.12509D-02
         7    7.15018D-03  0.00D+00  7.15D-03  2.52D+00    1.09501D-01
         8    7.28979D-03  0.00D+00  7.29D-03  2.57D+00    1.27751D-01
         9    7.45789D-03  0.00D+00  7.46D-03  2.62D+00    1.46002D-01

 ** RSPCTL MICROITERATION NUMBER    4

       No.  Residual tot.,    conf., and orb.    Bnorm      Frequency 
      ----------------------------------------------------------------
         1    4.10044D-04  0.00D+00  4.10D-04  2.40D+00    0.00000D+00
         2    4.11186D-04  0.00D+00  4.11D-04  2.40D+00    1.82502D-02
         3    4.14629D-04  0.00D+00  4.15D-04  2.41D+00    3.65004D-02
         4    4.20437D-04  0.00D+00  4.20D-04  2.43D+00    5.47506D-02
         5    4.28716D-04  0.00D+00  4.29D-04  2.45D+00    7.30008D-02
         6    4.39622D-04  0.00D+00  4.40D-04  2.48D+00    9.12509D-02
         7    4.53369D-04  0.00D+00  4.53D-04  2.52D+00    1.09501D-01
         8    4.70244D-04  0.00D+00  4.70D-04  2.57D+00    1.27751D-01
         9    4.90620D-04  0.00D+00  4.91D-04  2.62D+00    1.46002D-01

 *** THE REQUESTED    9 SOLUTION VECTORS CONVERGED

 Convergence of RSP solution vectors, threshold = 1.00D-03
 ---------------------------------------------------------------
 (dimension of paired reduced space:   70)
 RSP solution vector no.    1; norm of residual   1.71D-04
 RSP solution vector no.    2; norm of residual   1.71D-04
 RSP solution vector no.    3; norm of residual   1.72D-04
 RSP solution vector no.    4; norm of residual   1.73D-04
 RSP solution vector no.    5; norm of residual   1.75D-04
 RSP solution vector no.    6; norm of residual   1.77D-04
 RSP solution vector no.    7; norm of residual   1.80D-04
 RSP solution vector no.    8; norm of residual   1.83D-04
 RSP solution vector no.    9; norm of residual   1.87D-04

 *** RSPCTL MICROITERATIONS CONVERGED


           Final output of second order properties from linear response
           ------------------------------------------------------------


@ Spin symmetry of operators: singlet

 Note that minus the linear response function: - << A; B >>(omega) is printed.
 The results are of quadratic accuracy using Sellers formula.

@ FREQUENCY INDEPENDENT SECOND ORDER PROPERTIES

@ -<< YDIPLEN  ; YDIPLEN  >> =  9.836996059161E+00

@ FREQUENCY DEPENDENT SECOND ORDER PROPERTIES WITH FREQUENCY :

@    a.u.:  1.8250188D-02
@    cm-1:  4.0054531D+03
@    eV  :  4.9661286D-01
@  kJ/mol:  4.7915860D+01
@    nm  :  2.4965964D+03

@ -<< YDIPLEN  ; YDIPLEN  >> =  9.843796374523E+00

@ FREQUENCY DEPENDENT SECOND ORDER PROPERTIES WITH FREQUENCY :

@    a.u.:  3.6500375D-02
@    cm-1:  8.0109063D+03
@    eV  :  9.9322573D-01
@  kJ/mol:  9.5831720D+01
@    nm  :  1.2482982D+03

@ -<< YDIPLEN  ; YDIPLEN  >> =  9.864272680182E+00

@ FREQUENCY DEPENDENT SECOND ORDER PROPERTIES WITH FREQUENCY :

@    a.u.:  5.4750563D-02
@    cm-1:  1.2016359D+04
@    eV  :  1.4898386D+00
@  kJ/mol:  1.4374758D+02
@    nm  :  8.3219881D+02

@ -<< YDIPLEN  ; YDIPLEN  >> =  9.898653480569E+00

@ FREQUENCY DEPENDENT SECOND ORDER PROPERTIES WITH FREQUENCY :

@    a.u.:  7.3000750D-02
@    cm-1:  1.6021813D+04
@    eV  :  1.9864515D+00
@  kJ/mol:  1.9166344D+02
@    nm  :  6.2414911D+02

@ -<< YDIPLEN  ; YDIPLEN  >> =  9.947327862330E+00

@ FREQUENCY DEPENDENT SECOND ORDER PROPERTIES WITH FREQUENCY :

@    a.u.:  9.1250938D-02
@    cm-1:  2.0027266D+04
@    eV  :  2.4830643D+00
@  kJ/mol:  2.3957930D+02
@    nm  :  4.9931929D+02

@ -<< YDIPLEN  ; YDIPLEN  >> =  1.001085844215E+01

@ FREQUENCY DEPENDENT SECOND ORDER PROPERTIES WITH FREQUENCY :

@    a.u.:  1.0950113D-01
@    cm-1:  2.4032719D+04
@    eV  :  2.9796772D+00
@  kJ/mol:  2.8749516D+02
@    nm  :  4.1609940D+02

@ -<< YDIPLEN  ; YDIPLEN  >> =  1.009000072037E+01

@ FREQUENCY DEPENDENT SECOND ORDER PROPERTIES WITH FREQUENCY :

@    a.u.:  1.2775131D-01
@    cm-1:  2.8038172D+04
@    eV  :  3.4762900D+00
@  kJ/mol:  3.3541102D+02
@    nm  :  3.5665663D+02

@ -<< YDIPLEN  ; YDIPLEN  >> =  1.018573024031E+01

@ FREQUENCY DEPENDENT SECOND ORDER PROPERTIES WITH FREQUENCY :

@    a.u.:  1.4600150D-01
@    cm-1:  3.2043625D+04
@    eV  :  3.9729029D+00
@  kJ/mol:  3.8332688D+02
@    nm  :  3.1207455D+02

@ -<< YDIPLEN  ; YDIPLEN  >> =  1.029927963604E+01


 Time used in linear response calculation is      4.30 CPU seconds for symmetry 3
 ----------------------------------------------------------------
 ----- Linear response calculation
 ----- Symmetry of excitation/property operator(s)    5  ( B1u)
 ----------------------------------------------------------------

 Number of excitations of this symmetry            0
 Number of response properties of this symmetry    1
 Number of C6/C8 properties of this symmetry       0


 Perturbation symmetry.     KSYMOP:           5
 Perturbation spin symmetry.TRPLET:           F
 Orbital variables.         KZWOPT:         179
 Configuration variables.   KZCONF:           0
 Total number of variables. KZVAR :         179


 RSPLR -- linear response calculation for symmetry 5  ( B1u)
 RSPLR -- operator label : ZDIPLEN 
 RSPLR -- operator spin  :   0
 RSPLR -- frequencies    :     0.000000  0.018250  0.036500  0.054751  0.073001
                               0.091251  0.109501  0.127751  0.146002



 ---  SOLVING SETS OF LINEAR EQUATIONS FOR LINEAR RESPONSE PROPERTIES ---

 Operator symmetry = 5  ( B1u); triplet =   F

RSPORT:    1 out of    9 new trial vectors linear dependent

 ** RSPCTL MICROITERATION NUMBER    1

       No.  Residual tot.,    conf., and orb.    Bnorm      Frequency 
      ----------------------------------------------------------------
         1    3.18327D+00  0.00D+00  3.18D+00  2.34D+00    0.00000D+00
         2    3.18566D+00  0.00D+00  3.19D+00  2.35D+00    1.82502D-02
         3    3.19286D+00  0.00D+00  3.19D+00  2.36D+00    3.65004D-02
         4    3.20496D+00  0.00D+00  3.20D+00  2.38D+00    5.47506D-02
         5    3.22207D+00  0.00D+00  3.22D+00  2.41D+00    7.30008D-02
         6    3.24438D+00  0.00D+00  3.24D+00  2.44D+00    9.12509D-02
         7    3.27215D+00  0.00D+00  3.27D+00  2.49D+00    1.09501D-01
         8    3.30571D+00  0.00D+00  3.31D+00  2.54D+00    1.27751D-01
         9    3.34544D+00  0.00D+00  3.35D+00  2.61D+00    1.46002D-01

 ** RSPCTL MICROITERATION NUMBER    2

       No.  Residual tot.,    conf., and orb.    Bnorm      Frequency 
      ----------------------------------------------------------------
         1    4.17807D-01  0.00D+00  4.18D-01  3.12D+00    0.00000D+00
         2    4.18429D-01  0.00D+00  4.18D-01  3.13D+00    1.82502D-02
         3    4.20306D-01  0.00D+00  4.20D-01  3.14D+00    3.65004D-02
         4    4.23469D-01  0.00D+00  4.23D-01  3.17D+00    5.47506D-02
         5    4.27969D-01  0.00D+00  4.28D-01  3.22D+00    7.30008D-02
         6    4.33884D-01  0.00D+00  4.34D-01  3.27D+00    9.12509D-02
         7    4.41316D-01  0.00D+00  4.41D-01  3.34D+00    1.09501D-01
         8    4.50400D-01  0.00D+00  4.50D-01  3.42D+00    1.27751D-01
         9    4.61311D-01  0.00D+00  4.61D-01  3.52D+00    1.46002D-01

 ** RSPCTL MICROITERATION NUMBER    3

       No.  Residual tot.,    conf., and orb.    Bnorm      Frequency 
      ----------------------------------------------------------------
         1    3.37594D-02  0.00D+00  3.38D-02  3.13D+00    0.00000D+00
         2    3.38136D-02  0.00D+00  3.38D-02  3.13D+00    1.82502D-02
         3    3.39770D-02  0.00D+00  3.40D-02  3.15D+00    3.65004D-02
         4    3.42526D-02  0.00D+00  3.43D-02  3.18D+00    5.47506D-02
         5    3.46453D-02  0.00D+00  3.46D-02  3.22D+00    7.30008D-02
         6    3.51624D-02  0.00D+00  3.52D-02  3.28D+00    9.12509D-02
         7    3.58138D-02  0.00D+00  3.58D-02  3.35D+00    1.09501D-01
         8    3.66127D-02  0.00D+00  3.66D-02  3.43D+00    1.27751D-01
         9    3.75760D-02  0.00D+00  3.76D-02  3.53D+00    1.46002D-01

 ** RSPCTL MICROITERATION NUMBER    4

       No.  Residual tot.,    conf., and orb.    Bnorm      Frequency 
      ----------------------------------------------------------------
         1    3.67810D-03  0.00D+00  3.68D-03  3.13D+00    0.00000D+00
         2    3.68603D-03  0.00D+00  3.69D-03  3.13D+00    1.82502D-02
         3    3.70994D-03  0.00D+00  3.71D-03  3.15D+00    3.65004D-02
         4    3.75026D-03  0.00D+00  3.75D-03  3.18D+00    5.47506D-02
         5    3.80769D-03  0.00D+00  3.81D-03  3.22D+00    7.30008D-02
         6    3.88324D-03  0.00D+00  3.88D-03  3.28D+00    9.12509D-02
         7    3.97829D-03  0.00D+00  3.98D-03  3.35D+00    1.09501D-01
         8    4.09463D-03  0.00D+00  4.09D-03  3.43D+00    1.27751D-01
         9    4.23452D-03  0.00D+00  4.23D-03  3.53D+00    1.46002D-01

 ** RSPCTL MICROITERATION NUMBER    5

       No.  Residual tot.,    conf., and orb.    Bnorm      Frequency 
      ----------------------------------------------------------------
         1    1.90763D-04  0.00D+00  1.91D-04  3.13D+00    0.00000D+00
         2    1.91335D-04  0.00D+00  1.91D-04  3.13D+00    1.82502D-02
         3    1.93064D-04  0.00D+00  1.93D-04  3.15D+00    3.65004D-02
         4    1.95993D-04  0.00D+00  1.96D-04  3.18D+00    5.47506D-02
         5    2.00195D-04  0.00D+00  2.00D-04  3.22D+00    7.30008D-02
         6    2.05777D-04  0.00D+00  2.06D-04  3.28D+00    9.12509D-02
         7    2.12883D-04  0.00D+00  2.13D-04  3.35D+00    1.09501D-01
         8    2.21706D-04  0.00D+00  2.22D-04  3.43D+00    1.27751D-01
         9    2.32490D-04  0.00D+00  2.32D-04  3.53D+00    1.46002D-01

 *** THE REQUESTED    9 SOLUTION VECTORS CONVERGED

 Convergence of RSP solution vectors, threshold = 1.00D-03
 ---------------------------------------------------------------
 (dimension of paired reduced space:   88)
 RSP solution vector no.    1; norm of residual   6.10D-05
 RSP solution vector no.    2; norm of residual   6.10D-05
 RSP solution vector no.    3; norm of residual   6.12D-05
 RSP solution vector no.    4; norm of residual   6.16D-05
 RSP solution vector no.    5; norm of residual   6.21D-05
 RSP solution vector no.    6; norm of residual   6.27D-05
 RSP solution vector no.    7; norm of residual   6.35D-05
 RSP solution vector no.    8; norm of residual   6.46D-05
 RSP solution vector no.    9; norm of residual   6.58D-05

 *** RSPCTL MICROITERATIONS CONVERGED


           Final output of second order properties from linear response
           ------------------------------------------------------------


@ Spin symmetry of operators: singlet

 Note that minus the linear response function: - << A; B >>(omega) is printed.
 The results are of quadratic accuracy using Sellers formula.

@ FREQUENCY INDEPENDENT SECOND ORDER PROPERTIES

@ -<< ZDIPLEN  ; ZDIPLEN  >> =  1.504535085851E+01

@ FREQUENCY DEPENDENT SECOND ORDER PROPERTIES WITH FREQUENCY :

@    a.u.:  1.8250188D-02
@    cm-1:  4.0054531D+03
@    eV  :  4.9661286D-01
@  kJ/mol:  4.7915860D+01
@    nm  :  2.4965964D+03

@ -<< ZDIPLEN  ; ZDIPLEN  >> =  1.505930163701E+01

@ FREQUENCY DEPENDENT SECOND ORDER PROPERTIES WITH FREQUENCY :

@    a.u.:  3.6500375D-02
@    cm-1:  8.0109063D+03
@    eV  :  9.9322573D-01
@  kJ/mol:  9.5831720D+01
@    nm  :  1.2482982D+03

@ -<< ZDIPLEN  ; ZDIPLEN  >> =  1.510134254830E+01

@ FREQUENCY DEPENDENT SECOND ORDER PROPERTIES WITH FREQUENCY :

@    a.u.:  5.4750563D-02
@    cm-1:  1.2016359D+04
@    eV  :  1.4898386D+00
@  kJ/mol:  1.4374758D+02
@    nm  :  8.3219881D+02

@ -<< ZDIPLEN  ; ZDIPLEN  >> =  1.517204616100E+01

@ FREQUENCY DEPENDENT SECOND ORDER PROPERTIES WITH FREQUENCY :

@    a.u.:  7.3000750D-02
@    cm-1:  1.6021813D+04
@    eV  :  1.9864515D+00
@  kJ/mol:  1.9166344D+02
@    nm  :  6.2414911D+02

@ -<< ZDIPLEN  ; ZDIPLEN  >> =  1.527239003947E+01

@ FREQUENCY DEPENDENT SECOND ORDER PROPERTIES WITH FREQUENCY :

@    a.u.:  9.1250938D-02
@    cm-1:  2.0027266D+04
@    eV  :  2.4830643D+00
@  kJ/mol:  2.3957930D+02
@    nm  :  4.9931929D+02

@ -<< ZDIPLEN  ; ZDIPLEN  >> =  1.540379340218E+01

@ FREQUENCY DEPENDENT SECOND ORDER PROPERTIES WITH FREQUENCY :

@    a.u.:  1.0950113D-01
@    cm-1:  2.4032719D+04
@    eV  :  2.9796772D+00
@  kJ/mol:  2.8749516D+02
@    nm  :  4.1609940D+02

@ -<< ZDIPLEN  ; ZDIPLEN  >> =  1.556817211816E+01

@ FREQUENCY DEPENDENT SECOND ORDER PROPERTIES WITH FREQUENCY :

@    a.u.:  1.2775131D-01
@    cm-1:  2.8038172D+04
@    eV  :  3.4762900D+00
@  kJ/mol:  3.3541102D+02
@    nm  :  3.5665663D+02

@ -<< ZDIPLEN  ; ZDIPLEN  >> =  1.576801624030E+01

@ FREQUENCY DEPENDENT SECOND ORDER PROPERTIES WITH FREQUENCY :

@    a.u.:  1.4600150D-01
@    cm-1:  3.2043625D+04
@    eV  :  3.9729029D+00
@  kJ/mol:  3.8332688D+02
@    nm  :  3.1207455D+02

@ -<< ZDIPLEN  ; ZDIPLEN  >> =  1.600649632707E+01


 Time used in linear response calculation is      5.37 CPU seconds for symmetry 5

  Total CPU  time used in RESPONSE:  13.97 seconds
  Total wall time used in RESPONSE:  13.99 seconds


                   .-------------------------------------------.
                   | End of Dynamic Property Section (RESPONS) |
                   `-------------------------------------------'

  Total CPU  time used in DALTON:  17.23 seconds
  Total wall time used in DALTON:  17.26 seconds

 
     Date and time (Linux)  : Wed Jan 11 15:39:44 2023
     Host name              : cn021                                   
