

     ************************************************************************
     *************** Dalton - An Electronic Structure Program ***************
     ************************************************************************

    This is output from DALTON release Dalton2020.0 (2020)
         ( Web site: http://daltonprogram.org )

   ----------------------------------------------------------------------------

    NOTE:
     
    Dalton is an experimental code for the evaluation of molecular
    properties using (MC)SCF, DFT, CI, and CC wave functions.
    The authors accept no responsibility for the performance of
    the code or for the correctness of the results.
     
    The code (in whole or part) is provided under a licence and
    is not to be reproduced for further distribution without
    the written permission of the authors or their representatives.
     
    See the home page "http://daltonprogram.org" for further information.
     
    If results obtained with this code are published,
    the appropriate citations would be both of:
     
       K. Aidas, C. Angeli, K. L. Bak, V. Bakken, R. Bast,
       L. Boman, O. Christiansen, R. Cimiraglia, S. Coriani,
       P. Dahle, E. K. Dalskov, U. Ekstroem,
       T. Enevoldsen, J. J. Eriksen, P. Ettenhuber, B. Fernandez,
       L. Ferrighi, H. Fliegl, L. Frediani, K. Hald, A. Halkier,
       C. Haettig, H. Heiberg, T. Helgaker, A. C. Hennum,
       H. Hettema, E. Hjertenaes, S. Hoest, I.-M. Hoeyvik,
       M. F. Iozzi, B. Jansik, H. J. Aa. Jensen, D. Jonsson,
       P. Joergensen, J. Kauczor, S. Kirpekar,
       T. Kjaergaard, W. Klopper, S. Knecht, R. Kobayashi, H. Koch,
       J. Kongsted, A. Krapp, K. Kristensen, A. Ligabue,
       O. B. Lutnaes, J. I. Melo, K. V. Mikkelsen, R. H. Myhre,
       C. Neiss, C. B. Nielsen, P. Norman, J. Olsen,
       J. M. H. Olsen, A. Osted, M. J. Packer, F. Pawlowski,
       T. B. Pedersen, P. F. Provasi, S. Reine, Z. Rinkevicius,
       T. A. Ruden, K. Ruud, V. Rybkin, P. Salek, C. C. M. Samson,
       A. Sanchez de Meras, T. Saue, S. P. A. Sauer,
       B. Schimmelpfennig, K. Sneskov, A. H. Steindal,
       K. O. Sylvester-Hvid, P. R. Taylor, A. M. Teale,
       E. I. Tellgren, D. P. Tew, A. J. Thorvaldsen, L. Thoegersen,
       O. Vahtras, M. A. Watson, D. J. D. Wilson, M. Ziolkowski
       and H. Agren,
       "The Dalton quantum chemistry program system",
       WIREs Comput. Mol. Sci. 2014, 4:269–284 (doi: 10.1002/wcms.1172)
     
    and
     
       Dalton, a molecular electronic structure program,
       Release Dalton2020.0 (2020), see http://daltonprogram.org
   ----------------------------------------------------------------------------

    Authors in alphabetical order (Major contribution(s) in parenthesis):

  Kestutis Aidas,           Vilnius University,           Lithuania   (QM/MM)
  Celestino Angeli,         University of Ferrara,        Italy       (NEVPT2)
  Keld L. Bak,              UNI-C,                        Denmark     (AOSOPPA, non-adiabatic coupling, magnetic properties)
  Vebjoern Bakken,          University of Oslo,           Norway      (DALTON; geometry optimizer, symmetry detection)
  Radovan Bast,             UiT The Arctic U. of Norway,  Norway      (DALTON installation and execution frameworks)
  Pablo Baudin,             University of Valencia,       Spain       (Cholesky excitation energies)
  Linus Boman,              NTNU,                         Norway      (Cholesky decomposition and subsystems)
  Bruno N. Cabral Tenorio,  Technical Univ. of Denmark,   Denmark     (Lanczos-based CC methods)
  Ove Christiansen,         Aarhus University,            Denmark     (CC module)
  Renzo Cimiraglia,         University of Ferrara,        Italy       (NEVPT2)
  Sonia Coriani,            Technical Univ. of Denmark,   Denmark     (CC and RESPONS modules)
  Janusz Cukras,            University of Warsaw,         Poland      (MChD in RESPONS)
  Paal Dahle,               University of Oslo,           Norway      (Parallelization)
  Erik K. Dalskov,          UNI-C,                        Denmark     (SOPPA)
  Thomas Enevoldsen,        Univ. of Southern Denmark,    Denmark     (SOPPA)
  Janus J. Eriksen,         Aarhus University,            Denmark     (Polarizable embedding, TDA)
  Rasmus Faber,             Technical Univ. of Denmark,   Denmark     (Vib.avg. NMR w. SOPPA, parallel AO-SOPPA, CVS-CC and EOMCC)
  Tobias Fahleson,          KTH Stockholm,                Sweden      (Damped cubic response)
  Berta Fernandez,          U. of Santiago de Compostela, Spain       (Doublet spin, ESR in RESPONS)
  Lara Ferrighi,            Aarhus University,            Denmark     (PCM Cubic response)
  Heike Fliegl,             University of Oslo,           Norway      (CCSD(R12))
  Luca Frediani,            UiT The Arctic U. of Norway,  Norway      (PCM)
  Emmanuel Fromager,        Univ. Strasbourg,             France      (MC-srDFT)
  Bin Gao,                  UiT The Arctic U. of Norway,  Norway      (Gen1Int library)
  Andre S. P. Gomes,        CNRS/Universite de Lille,     France      (Frozen density embedding)
  Christof Haettig,         Ruhr-University Bochum,       Germany     (CC module)
  Kasper Hald,              Aarhus University,            Denmark     (CC module)
  Asger Halkier,            Aarhus University,            Denmark     (CC module)
  Frederik Beyer Hansen,    University of Copenhagen,     Denmark     (Parallel AO-SOPPA)
  Erik D. Hedegaard,        Univ. of Southern Denmark,    Denmark     (Polarizable embedding, QM/MM, and MC-srDFT)
  Hanne Heiberg,            University of Oslo,           Norway      (Geometry analysis, selected one-electron integrals)
  Trygve Helgaker,          University of Oslo,           Norway      (DALTON; ABACUS, ERI, DFT modules, London, and much more)
  Alf Christian Hennum,     University of Oslo,           Norway      (Parity violation)
  Hinne Hettema,            University of Auckland,       New Zealand (Quadratic response in RESPONS; SIRIUS supersymmetry)
  Eirik Hjertenaes,         NTNU,                         Norway      (Cholesky decomposition)
  Pi A. B. Haase,           University of Copenhagen,     Denmark     (Triplet AO-SOPPA)
  Maria Francesca Iozzi,    University of Oslo,           Norway      (RPA)
  Christoph Jacob           TU Braunschweig               Germany     (Frozen density embedding)
  Brano Jansik              Technical Univ. of Ostrava    Czech Rep.  (DFT cubic response)
  Hans Joergen Aa. Jensen,  Univ. of Southern Denmark,    Denmark     (DALTON; SIRIUS, RESPONS, ABACUS, MC-srDFT, and much more)
  Dan Jonsson,              UiT The Arctic U. of Norway,  Norway      (Cubic response in RESPONS module)
  Poul Joergensen,          Aarhus University,            Denmark     (RESPONS, ABACUS, and CC modules)
  Maciej Kaminski,          University of Warsaw,         Poland      (CPPh in RESPONS)
  Joanna Kauczor,           Linkoeping University,        Sweden      (Complex polarization propagator (CPP) module)
  Sheela Kirpekar,          Univ. of Southern Denmark,    Denmark     (Mass-velocity & Darwin integrals)
  Erik Kjellgren,           Univ. of Southern Denmark,    Denmark     (MC-srDFT)
  Wim Klopper,              KIT Karlsruhe,                Germany     (R12 code in CC, SIRIUS, and ABACUS modules)
  Stefan Knecht,            ETH Zurich,                   Switzerland (Parallel CI and MCSCF, MC-srDFT)
  Rika Kobayashi,           Australian National Univ.,    Australia   (DIIS in CC, London in MCSCF)
  Henrik Koch,              NTNU,                         Norway      (CC module, Cholesky decomposition)
  Jacob Kongsted,           Univ. of Southern Denmark,    Denmark     (Polarizable embedding, polarizable density embedding, QM/MM)
  Andrea Ligabue,           University of Modena,         Italy       (CTOCD, AOSOPPA)
  Nanna H. List             Univ. of Southern Denmark,    Denmark     (Polarizable embedding)
  Ola B. Lutnaes,           University of Oslo,           Norway      (DFT Hessian)
  Juan I. Melo,             University of Buenos Aires,   Argentina   (LRESC, Relativistic Effects on NMR Shieldings)
  Kurt V. Mikkelsen,        University of Copenhagen,     Denmark     (MC-SCRF and QM/MM)
  Rolf H. Myhre,            NTNU,                         Norway      (Subsystems and CC3)
  Christian Neiss,          Univ. Erlangen-Nuernberg,     Germany     (CCSD(R12))
  Christian B. Nielsen,     University of Copenhagen,     Denmark     (QM/MM)
  Patrick Norman,           KTH Stockholm,                Sweden      (Cubic response and complex frequency response in RESPONS)
  Jeppe Olsen,              Aarhus University,            Denmark     (SIRIUS CI/density modules)
  Jogvan Magnus H. Olsen,   Aarhus University,            Denmark     (Polarizable embedding and polarizable density embedding)
  Anders Osted,             Copenhagen University,        Denmark     (QM/MM)
  Martin J. Packer,         University of Sheffield,      UK          (SOPPA)
  Filip Pawlowski,          Kazimierz Wielki University,  Poland      (CC3)
  Morten N. Pedersen,       Univ. of Southern Denmark,    Denmark     (Polarizable embedding)
  Thomas B. Pedersen,       University of Oslo,           Norway      (Cholesky decomposition)
  Patricio F. Provasi,      University of Northeastern,   Argentina   (Analysis of coupling constants in localized orbitals)
  Peter Reinholdt,          Univ. of Southern Denmark,    Denmark     (Polarizable embedding and polarizable density embedding)
  Zilvinas Rinkevicius,     KTH Stockholm,                Sweden      (open-shell DFT, ESR)
  Elias Rudberg,            KTH Stockholm,                Sweden      (DFT grid and basis info)
  Torgeir A. Ruden,         University of Oslo,           Norway      (Numerical derivatives in ABACUS)
  Kenneth Ruud,             UiT The Arctic U. of Norway,  Norway      (DALTON; ABACUS magnetic properties and much more)
  Pawel Salek,              KTH Stockholm,                Sweden      (DALTON; DFT code)
  Claire C. M. Samson       University of Karlsruhe       Germany     (Boys localization, r12 integrals in ERI)
  Alfredo Sanchez de Meras, University of Valencia,       Spain       (CC module, Cholesky decomposition)
  Trond Saue,               Paul Sabatier University,     France      (direct Fock matrix construction)
  Stephan P. A. Sauer,      University of Copenhagen,     Denmark     (SOPPA(CCSD), SOPPA prop., AOSOPPA, vibrational g-factors)
  Bernd Schimmelpfennig,    Forschungszentrum Karlsruhe,  Germany     (AMFI module)
  Anna K. Schnack-Petersen, University of Copenhagen,     Denmark     (RPA(D) and HRPA(D) properties in AOSOPPA)
  Kristian Sneskov,         Aarhus University,            Denmark     (Polarizable embedding, QM/MM)
  Arnfinn H. Steindal,      UiT The Arctic U. of Norway,  Norway      (parallel QM/MM, polarizable embedding)
  Casper Steinmann,         Aalborg University,           Denmark     (QFIT, polarizable embedding)
  K. O. Sylvester-Hvid,     University of Copenhagen,     Denmark     (MC-SCRF)
  Peter R. Taylor,          VLSCI/Univ. of Melbourne,     Australia   (Symmetry handling ABACUS, integral transformation)
  Andrew M. Teale,          University of Nottingham,     England     (DFT-AC, DFT-D)
  David P. Tew,             University of Bristol,        England     (CCSD(R12))
  Julien Toulouse,          Sorbonne Univ.,               France      (MC-srDFT)
  Olav Vahtras,             KTH Stockholm,                Sweden      (Triplet response, spin-orbit, ESR, TDDFT, open-shell DFT)
  Lucas Visscher,           Vrije Universiteit Amsterdam, Netherlands (Frozen density embedding)
  David J. Wilson,          La Trobe University,          Australia   (DFT Hessian and DFT magnetizabilities)
  Hans Agren,               KTH Stockholm,                Sweden      (SIRIUS module, RESPONS, MC-SCRF solvation)
 --------------------------------------------------------------------------------

     Date and time (Linux)  : Wed Jan 11 14:15:32 2023
     Host name              : cn020                                   

 * Work memory size             :    64000000 =  488.28 megabytes.

 * Directories for basis set searches:
   1) /gpfs/projects/rjh/adrian/fd_compare/dalton/hf/N2/dipole
   2) /gpfs/projects/rjh/adrian/dalton/build/basis


Compilation information
-----------------------

 Who compiled             | ahurtado
 Host                     | sn-mem
 System                   | Linux-3.10.0-1160.24.1.el7.x86_64
 CMake generator          | Unix Makefiles
 Processor                | x86_64
 64-bit integers          | OFF
 MPI                      | ON
 Fortran compiler         | /gpfs/software/intel/oneAPI/2021_4/mpi/2021.4.0/bi
                          | n/mpif90
 Fortran compiler version | GNU Fortran (GCC) 11.2.0
 C compiler               | /gpfs/software/intel/oneAPI/2021_4/mpi/2021.4.0/bi
                          | n/mpicc
 C compiler version       | gcc (GCC) 11.2.0
 C++ compiler             | /gpfs/software/intel/oneAPI/2021_4/mpi/2021.4.0/bi
                          | n/mpicxx
 C++ compiler version     | unknown
 BLAS                     | /gpfs/software/intel/oneAPI/2021_4/mkl/2021.4.0/li
                          | b/intel64/libmkl_gf_lp64.so;/gpfs/software/intel/o
                          | neAPI/2021_4/mkl/2021.4.0/lib/intel64/libmkl_seque
                          | ntial.so;/gpfs/software/intel/oneAPI/2021_4/mkl/20
                          | 21.4.0/lib/intel64/libmkl_core.so;/usr/lib64/libpt
                          | hread.so;/usr/lib64/libm.so
 LAPACK                   | /gpfs/software/intel/oneAPI/2021_4/mkl/2021.4.0/li
                          | b/intel64/libmkl_lapack95_lp64.a;/gpfs/software/in
                          | tel/oneAPI/2021_4/mkl/2021.4.0/lib/intel64/libmkl_
                          | gf_lp64.so
 Static linking           | OFF
 Last Git revision        | 66052b3af5ea7225e31178bf9a8b031913c72190
 Git branch               | (HEAD detached at Dalton2020.0)
 Configuration time       | 2023-01-11 13:33:37.731835

 * MPI parallel run using 20 processes.


   Content of the .dal input file
 ----------------------------------

**DALTON INPUT
.RUN RESPONSE
.DIRECT
**WAVE FUNCTIONS
.HF
**RESPONSE
*LINEAR
.DIPLEN
.FREQUENCIES
9
0.0 0.0182501875 0.036500375 0.0547505625 0.07300075 0.0912509375 0.109501125 0.1277513125 0.1460015
**END OF DALTON INPUT


   Content of the .mol file
 ----------------------------

BASIS
aug-cc-pVQZ
blah
blah
Atomtype=1 Atomic
Charge=7 Atoms=2
N_a 0.000000000000 0.000000000000 0.000000000000
N_b 0.000000000000 0.000000000000 2.074320000000


       *******************************************************************
       *********** Output from DALTON general input processing ***********
       *******************************************************************

 --------------------------------------------------------------------------------
   Overall default print level:    0
   Print level for DALTON.STAT:    1

    Parallel calculation using MPI
    AO-direct calculation (in sections where implemented)
    HERMIT 1- and 2-electron integral sections will be executed
    "Old" integral transformation used (limited to max 255 basis functions)
    Wave function sections will be executed (SIRIUS module)
    Dynamic molecular response properties section will be executed (RESPONSE module)
 --------------------------------------------------------------------------------


   ****************************************************************************
   *************** Output of molecule and basis set information ***************
   ****************************************************************************


    The two title cards from your ".mol" input:
    ------------------------------------------------------------------------
 1: blah                                                                    
 2: blah                                                                    
    ------------------------------------------------------------------------

  Atomic type no.    1
  --------------------
  Nuclear charge:   7.00000
  Number of symmetry independent centers:    2
  Number of basis sets to read;    2
  Basis set file used for this atomic type with Z =   7 :
     "/gpfs/projects/rjh/adrian/dalton/build/basis/aug-cc-pVQZ"


                      SYMADD: Requested addition of symmetry
                      --------------------------------------

 Symmetry test threshold:  5.00E-06

@   The molecule is centered at center of mass and rotated
@   so principal axes of inertia are along coordinate axes.

 Symmetry class found: D(oo,h)        

 Symmetry Independent Centres             
 ----------------------------
N_b    7 :      0.00000000     0.00000000     1.03716000  Isotope  1

 The following symmetry elements were found:   X  Y  Z  


                         SYMGRP: Point group information
                         -------------------------------

@    Full point group is: D(oo,h)        
@    Represented as:      D2h

@  * The irrep name for each symmetry:    1: Ag     2: B3u    3: B2u    4: B1g    5: B1u    6: B2g    7: B3g    8: Au 


   * The point group was generated by:

      Reflection in the yz-plane
      Reflection in the xz-plane
      Reflection in the xy-plane

   * Group multiplication table

        |  E   C2z  C2y  C2x   i   Oxy  Oxz  Oyz
   -----+----------------------------------------
     E  |  E   C2z  C2y  C2x   i   Oxy  Oxz  Oyz
    C2z | C2z   E   C2x  C2y  Oxy   i   Oyz  Oxz
    C2y | C2y  C2x   E   C2z  Oxz  Oyz   i   Oxy
    C2x | C2x  C2y  C2z   E   Oyz  Oxz  Oxy   i 
     i  |  i   Oxy  Oxz  Oyz   E   C2z  C2y  C2x
    Oxy | Oxy   i   Oyz  Oxz  C2z   E   C2x  C2y
    Oxz | Oxz  Oyz   i   Oxy  C2y  C2x   E   C2z
    Oyz | Oyz  Oxz  Oxy   i   C2x  C2y  C2z   E 

   * Character table

        |  E   C2z  C2y  C2x   i   Oxy  Oxz  Oyz
   -----+----------------------------------------
    Ag  |   1    1    1    1    1    1    1    1
    B3u |   1   -1   -1    1   -1    1    1   -1
    B2u |   1   -1    1   -1   -1    1   -1    1
    B1g |   1    1   -1   -1    1    1   -1   -1
    B1u |   1    1   -1   -1   -1   -1    1    1
    B2g |   1   -1    1   -1    1   -1    1   -1
    B3g |   1   -1   -1    1    1   -1   -1    1
    Au  |   1    1    1    1   -1   -1   -1   -1

   * Direct product table

        | Ag   B3u  B2u  B1g  B1u  B2g  B3g  Au 
   -----+----------------------------------------
    Ag  | Ag   B3u  B2u  B1g  B1u  B2g  B3g  Au 
    B3u | B3u  Ag   B1g  B2u  B2g  B1u  Au   B3g
    B2u | B2u  B1g  Ag   B3u  B3g  Au   B1u  B2g
    B1g | B1g  B2u  B3u  Ag   Au   B3g  B2g  B1u
    B1u | B1u  B2g  B3g  Au   Ag   B3u  B2u  B1g
    B2g | B2g  B1u  Au   B3g  B3u  Ag   B1g  B2u
    B3g | B3g  Au   B1u  B2g  B2u  B1g  Ag   B3u
    Au  | Au   B3g  B2g  B1u  B1g  B2u  B3u  Ag 


                                 Isotopic Masses
                                 ---------------

                           N_b _1     14.003074
                           N_b _2     14.003074

                       Total mass:    28.006148 amu
                       Natural abundance:  99.261 %

 Center-of-mass coordinates (a.u.):    0.000000    0.000000    0.000000
 Center-of-mass coordinates (Angs):    0.000000    0.000000    0.000000


  Atoms and basis sets
  --------------------

  Number of atom types :    1
  Total number of atoms:    2

  Basis set used is "aug-cc-pVQZ" from the basis set library.

  label    atoms   charge   prim   cont     basis
  ----------------------------------------------------------------------
  N_          2    7.0000    93    80      [13s7p4d3f2g|6s5p4d3f2g]                           
  ----------------------------------------------------------------------
  total:      2   14.0000   186   160
  ----------------------------------------------------------------------
  Spherical harmonic basis used.

  Threshold for neglecting AO integrals:  1.00D-12


  Cartesian Coordinates (a.u.)
  ----------------------------

  Total number of coordinates:    6
  N_b / 1 :     1  x   0.0000000000    2  y   0.0000000000    3  z   1.0371600000
  N_b / 2 :     4  x   0.0000000000    5  y   0.0000000000    6  z  -1.0371600000


  Symmetry Coordinates
  --------------------

  Number of coordinates in each symmetry:     1    1    1    0    1    1    1    0

  Symmetry  Ag  ( 1)

    1   N_b   z    [  3  -    6 ]/2

  Symmetry  B3u ( 2)

    2   N_b   x    [  1  +    4 ]/2

  Symmetry  B2u ( 3)

    3   N_b   y    [  2  +    5 ]/2

  Symmetry  B1u ( 5)

    4   N_b   z    [  3  +    6 ]/2

  Symmetry  B2g ( 6)

    5   N_b   x    [  1  -    4 ]/2

  Symmetry  B3g ( 7)

    6   N_b   y    [  2  -    5 ]/2


   Interatomic separations (in Angstrom):
   --------------------------------------

            N_b _1      N_b _2
            ------      ------
 N_b _1:    0.000000
 N_b _2:    1.097683    0.000000


  Max    interatomic separation is    1.0977 Angstrom (    2.0743 Bohr)
  between atoms    2 and    1, "N_b _2" and "N_b _1".

  Min YX interatomic separation is    1.0977 Angstrom (    2.0743 Bohr)


  Bond distances (Angstrom):
  --------------------------

                  atom 1     atom 2       distance
                  ------     ------       --------
  bond distance:  N_b _2     N_b _1       1.097683




 Principal moments of inertia (u*A**2) and principal axes
 --------------------------------------------------------

   IA       0.000000          0.000000    0.000000    1.000000
   IB       8.436206          0.000000    1.000000    0.000000
   IC       8.436206          1.000000    0.000000    0.000000


 Rotational constants
 --------------------

@    The molecule is linear.

               B =        59905.96 MHz     (    1.998248 cm-1)


@  Nuclear repulsion energy :   23.622199082109 Hartree


  Symmetry Orbitals
  -----------------

  Number of orbitals in each symmetry:          31   19   19   11   31   19   19   11


  Symmetry  Ag ( 1)

    1     N_b      1s         1 +    2
    2     N_b      1s         3 +    4
    3     N_b      1s         5 +    6
    4     N_b      1s         7 +    8
    5     N_b      1s         9 +   10
    6     N_b      1s        11 +   12
    7     N_b      2pz       17 -   18
    8     N_b      2pz       23 -   24
    9     N_b      2pz       29 -   30
   10     N_b      2pz       35 -   36
   11     N_b      2pz       41 -   42
   12     N_b      3d0       47 +   48
   13     N_b      3d2+      51 +   52
   14     N_b      3d0       57 +   58
   15     N_b      3d2+      61 +   62
   16     N_b      3d0       67 +   68
   17     N_b      3d2+      71 +   72
   18     N_b      3d0       77 +   78
   19     N_b      3d2+      81 +   82
   20     N_b      4f0       89 -   90
   21     N_b      4f2+      93 -   94
   22     N_b      4f0      103 -  104
   23     N_b      4f2+     107 -  108
   24     N_b      4f0      117 -  118
   25     N_b      4f2+     121 -  122
   26     N_b      5g0      133 +  134
   27     N_b      5g2+     137 +  138
   28     N_b      5g4+     141 +  142
   29     N_b      5g0      151 +  152
   30     N_b      5g2+     155 +  156
   31     N_b      5g4+     159 +  160


  Symmetry  B3u( 2)

   32     N_b      2px       13 +   14
   33     N_b      2px       19 +   20
   34     N_b      2px       25 +   26
   35     N_b      2px       31 +   32
   36     N_b      2px       37 +   38
   37     N_b      3d1+      49 -   50
   38     N_b      3d1+      59 -   60
   39     N_b      3d1+      69 -   70
   40     N_b      3d1+      79 -   80
   41     N_b      4f1+      91 +   92
   42     N_b      4f3+      95 +   96
   43     N_b      4f1+     105 +  106
   44     N_b      4f3+     109 +  110
   45     N_b      4f1+     119 +  120
   46     N_b      4f3+     123 +  124
   47     N_b      5g1+     135 -  136
   48     N_b      5g3+     139 -  140
   49     N_b      5g1+     153 -  154
   50     N_b      5g3+     157 -  158


  Symmetry  B2u( 3)

   51     N_b      2py       15 +   16
   52     N_b      2py       21 +   22
   53     N_b      2py       27 +   28
   54     N_b      2py       33 +   34
   55     N_b      2py       39 +   40
   56     N_b      3d1-      45 -   46
   57     N_b      3d1-      55 -   56
   58     N_b      3d1-      65 -   66
   59     N_b      3d1-      75 -   76
   60     N_b      4f3-      83 +   84
   61     N_b      4f1-      87 +   88
   62     N_b      4f3-      97 +   98
   63     N_b      4f1-     101 +  102
   64     N_b      4f3-     111 +  112
   65     N_b      4f1-     115 +  116
   66     N_b      5g3-     127 -  128
   67     N_b      5g1-     131 -  132
   68     N_b      5g3-     145 -  146
   69     N_b      5g1-     149 -  150


  Symmetry  B1g( 4)

   70     N_b      3d2-      43 +   44
   71     N_b      3d2-      53 +   54
   72     N_b      3d2-      63 +   64
   73     N_b      3d2-      73 +   74
   74     N_b      4f2-      85 -   86
   75     N_b      4f2-      99 -  100
   76     N_b      4f2-     113 -  114
   77     N_b      5g4-     125 +  126
   78     N_b      5g2-     129 +  130
   79     N_b      5g4-     143 +  144
   80     N_b      5g2-     147 +  148


  Symmetry  B1u( 5)

   81     N_b      1s         1 -    2
   82     N_b      1s         3 -    4
   83     N_b      1s         5 -    6
   84     N_b      1s         7 -    8
   85     N_b      1s         9 -   10
   86     N_b      1s        11 -   12
   87     N_b      2pz       17 +   18
   88     N_b      2pz       23 +   24
   89     N_b      2pz       29 +   30
   90     N_b      2pz       35 +   36
   91     N_b      2pz       41 +   42
   92     N_b      3d0       47 -   48
   93     N_b      3d2+      51 -   52
   94     N_b      3d0       57 -   58
   95     N_b      3d2+      61 -   62
   96     N_b      3d0       67 -   68
   97     N_b      3d2+      71 -   72
   98     N_b      3d0       77 -   78
   99     N_b      3d2+      81 -   82
  100     N_b      4f0       89 +   90
  101     N_b      4f2+      93 +   94
  102     N_b      4f0      103 +  104
  103     N_b      4f2+     107 +  108
  104     N_b      4f0      117 +  118
  105     N_b      4f2+     121 +  122
  106     N_b      5g0      133 -  134
  107     N_b      5g2+     137 -  138
  108     N_b      5g4+     141 -  142
  109     N_b      5g0      151 -  152
  110     N_b      5g2+     155 -  156
  111     N_b      5g4+     159 -  160


  Symmetry  B2g( 6)

  112     N_b      2px       13 -   14
  113     N_b      2px       19 -   20
  114     N_b      2px       25 -   26
  115     N_b      2px       31 -   32
  116     N_b      2px       37 -   38
  117     N_b      3d1+      49 +   50
  118     N_b      3d1+      59 +   60
  119     N_b      3d1+      69 +   70
  120     N_b      3d1+      79 +   80
  121     N_b      4f1+      91 -   92
  122     N_b      4f3+      95 -   96
  123     N_b      4f1+     105 -  106
  124     N_b      4f3+     109 -  110
  125     N_b      4f1+     119 -  120
  126     N_b      4f3+     123 -  124
  127     N_b      5g1+     135 +  136
  128     N_b      5g3+     139 +  140
  129     N_b      5g1+     153 +  154
  130     N_b      5g3+     157 +  158


  Symmetry  B3g( 7)

  131     N_b      2py       15 -   16
  132     N_b      2py       21 -   22
  133     N_b      2py       27 -   28
  134     N_b      2py       33 -   34
  135     N_b      2py       39 -   40
  136     N_b      3d1-      45 +   46
  137     N_b      3d1-      55 +   56
  138     N_b      3d1-      65 +   66
  139     N_b      3d1-      75 +   76
  140     N_b      4f3-      83 -   84
  141     N_b      4f1-      87 -   88
  142     N_b      4f3-      97 -   98
  143     N_b      4f1-     101 -  102
  144     N_b      4f3-     111 -  112
  145     N_b      4f1-     115 -  116
  146     N_b      5g3-     127 +  128
  147     N_b      5g1-     131 +  132
  148     N_b      5g3-     145 +  146
  149     N_b      5g1-     149 +  150


  Symmetry  Au ( 8)

  150     N_b      3d2-      43 -   44
  151     N_b      3d2-      53 -   54
  152     N_b      3d2-      63 -   64
  153     N_b      3d2-      73 -   74
  154     N_b      4f2-      85 +   86
  155     N_b      4f2-      99 +  100
  156     N_b      4f2-     113 +  114
  157     N_b      5g4-     125 -  126
  158     N_b      5g2-     129 -  130
  159     N_b      5g4-     143 -  144
  160     N_b      5g2-     147 -  148

  Symmetries of electric field:  B3u(2)  B2u(3)  B1u(5)

  Symmetries of magnetic field:  B3g(7)  B2g(6)  B1g(4)


                     .---------------------------------------.
                     | Starting in Integral Section (HERMIT) |
                     `---------------------------------------'



 ***************************************************************************************
 ****************** Output from **INTEGRALS input processing (HERMIT) ******************
 ***************************************************************************************


 - Using defaults, no **INTEGRALS input found

 Default print level:        1

 Calculation of one-electron Hamiltonian integrals.

 Center of mass  (bohr):      0.000000000000      0.000000000000      0.000000000000
 Operator center (bohr):      0.000000000000      0.000000000000      0.000000000000
 Gauge origin    (bohr):      0.000000000000      0.000000000000      0.000000000000
 Dipole origin   (bohr):      0.000000000000      0.000000000000      0.000000000000


     ************************************************************************
     ************************** Output from HERINT **************************
     ************************************************************************



                      Nuclear contribution to dipole moments
                      --------------------------------------

                    All dipole components are zero by symmetry


  Total CPU  time used in HERMIT:   0.17 seconds
  Total wall time used in HERMIT:   0.17 seconds


                        .----------------------------------.
                        | End of Integral Section (HERMIT) |
                        `----------------------------------'



                   .--------------------------------------------.
                   | Starting in Wave Function Section (SIRIUS) |
                   `--------------------------------------------'


 *** Output from Huckel module :

     Using EWMO model:          F
     Using EHT  model:          T
     Number of Huckel orbitals each symmetry:    3    1    1    0    3    1    1    0

 Huckel EHT eigenvalues for symmetry :  1
          -15.703205      -1.363953      -0.476809

 Huckel EHT eigenvalues for symmetry :  2
           -0.648566

 Huckel EHT eigenvalues for symmetry :  3
           -0.648566

 Huckel EHT eigenvalues for symmetry :  5
          -15.694742      -0.814285      -0.224605

 Huckel EHT eigenvalues for symmetry :  6
           -0.368834

 Huckel EHT eigenvalues for symmetry :  7
           -0.368834

 **********************************************************************
 *SIRIUS* a direct, restricted step, second order MCSCF program       *
 **********************************************************************

 
     Date and time (Linux)  : Wed Jan 11 14:15:32 2023
     Host name              : cn020                                   

 Title lines from ".mol" input file:
     blah                                                                    
     blah                                                                    

 Print level on unit LUPRI =   2 is   0
 Print level on unit LUW4  =   2 is   5

@    Restricted, closed shell Hartree-Fock calculation.

@    Time-dependent Hartree-Fock calculation (random phase approximation).
 Fock matrices are calculated directly and in parallel without use of integrals on disk.

 Initial molecular orbitals are obtained according to
 ".MOSTART EHT   " input option

     Wave function specification
     ============================
@    Wave function type        --- HF ---
@    Number of closed shell electrons          14
@    Number of electrons in active shells       0
@    Total charge of the molecule               0

@    Spin multiplicity and 2 M_S                1         0
@    Total number of symmetries                 8 (point group: D2h)
@    Reference state symmetry                   1 (irrep name : Ag )

     Orbital specifications
     ======================
@    Abelian symmetry species          All |    1    2    3    4    5    6    7    8
@                                          |  Ag   B3u  B2u  B1g  B1u  B2g  B3g  Au 
                                       --- |  ---  ---  ---  ---  ---  ---  ---  ---
@    Total number of orbitals          160 |   31   19   19   11   31   19   19   11
@    Number of basis functions         160 |   31   19   19   11   31   19   19   11

      ** Automatic occupation of RHF orbitals **

      -- Initial occupation of symmetries is determined from extended Huckel guess.           
      -- Initial occupation of symmetries is :
@    Occupied SCF orbitals               7 |    3    1    1    0    2    0    0    0

     Maximum number of Fock   iterations      0
     Maximum number of DIIS   iterations     60
     Maximum number of QC-SCF iterations     60
     Threshold for SCF convergence     1.00D-05


 ***********************************************
 ***** DIIS acceleration of SCF iterations *****
 ***********************************************

 C1-DIIS algorithm; max error vectors =    8

 Automatic occupation of symmetries with  14 electrons.

 Iter     Total energy    Error norm  Delta(E)    SCF occupation
 -----------------------------------------------------------------------------
   1  Screening settings (-IFTHRS, JTDIIS, DIFDEN, times)   -7    1    T  6.00D-01  6.00D-01
@  1  -108.651571143       3.02D+00  -1.09D+02     3   1   1   0   2   0   0   0
      Virial theorem: -V/T =      2.010144
@    MULPOP   N_b _1 -0.00; N_b _2 -0.00; 
   1  Level shift: doubly occupied orbital energies shifted by -2.00D-01
 -----------------------------------------------------------------------------
   2  Screening settings (-IFTHRS, JTDIIS, DIFDEN, times)   -7    2    T  4.73D-01  4.73D-01
@  2  -108.975540257       6.19D-01  -3.24D-01     3   1   1   0   2   0   0   0
      Virial theorem: -V/T =      1.996105
@    MULPOP   N_b _1  0.00; N_b _2  0.00; 
   2  Level shift: doubly occupied orbital energies shifted by -5.00D-02
 -----------------------------------------------------------------------------
   3  Screening settings (-IFTHRS, JTDIIS, DIFDEN, times)   -7    3    T  4.80D-01  4.81D-01
@  3  -108.990319079       1.18D-01  -1.48D-02     3   1   1   0   2   0   0   0
      Virial theorem: -V/T =      2.002480
@    MULPOP   N_b _1 -0.00; N_b _2 -0.00; 
   3  Level shift: doubly occupied orbital energies shifted by -1.25D-02
 -----------------------------------------------------------------------------
   4  Screening settings (-IFTHRS, JTDIIS, DIFDEN, times)  -11    4    F  4.70D-01  4.71D-01
@  4  -108.991486926       2.58D-02  -1.17D-03     3   1   1   0   2   0   0   0
      Virial theorem: -V/T =      2.001905
@    MULPOP   N_b _1  0.00; N_b _2  0.00; 
 -----------------------------------------------------------------------------
   5  Screening settings (-IFTHRS, JTDIIS, DIFDEN, times)  -11    5    T  4.90D-01  4.90D-01
@  5  -108.991555913       3.90D-03  -6.90D-05     3   1   1   0   2   0   0   0
      Virial theorem: -V/T =      2.002121
@    MULPOP   N_b _1 -0.00; N_b _2 -0.00; 
 -----------------------------------------------------------------------------
   6  Screening settings (-IFTHRS, JTDIIS, DIFDEN, times)  -11    6    T  4.69D-01  4.70D-01
@  6  -108.991557838       4.18D-04  -1.92D-06     3   1   1   0   2   0   0   0
      Virial theorem: -V/T =      2.002106
@    MULPOP   N_b _1  0.00; N_b _2  0.00; 
 -----------------------------------------------------------------------------
   7  Screening settings (-IFTHRS, JTDIIS, DIFDEN, times)  -11    7    T  5.01D-01  5.01D-01
@  7  -108.991557857       4.24D-05  -1.90D-08     3   1   1   0   2   0   0   0
      Virial theorem: -V/T =      2.002110
@    MULPOP   N_b _1 -0.00; N_b _2 -0.00; 
 -----------------------------------------------------------------------------
   8  Screening settings (-IFTHRS, JTDIIS, DIFDEN, times)  -11    8    T  4.93D-01  4.94D-01
@  8  -108.991557857       6.37D-06  -2.11D-10     3   1   1   0   2   0   0   0

@ *** DIIS converged in   8 iterations !
@     Converged SCF energy, gradient:   -108.991557857236    6.37D-06
    - total time used in SIRFCK :              0.00 seconds


 *** SCF orbital energy analysis ***

 Only the 20 lowest virtual orbital energies printed in each symmetry.

 Number of electrons :   14
 Orbital occupations :    3    1    1    0    2    0    0    0

 Sym       Hartree-Fock orbital energies

1 Ag    -15.68363277    -1.47131076    -0.63450001     0.10061106     0.13803582
          0.31712998     0.35734176     0.63770067     0.78208291     0.98952169
          1.17490621     1.19455652     1.58313397     2.65858253     2.71658432
          2.84004631     2.87584163     3.16188336     3.35574917     3.53898945
          3.85233234     5.58253686     7.82328493

2 B3u    -0.61425838     0.10813118     0.42386290     0.55798370     0.94453472
          1.04146137     1.57781020     2.09389005     2.81240637     3.05244850
          3.12368543     3.15667797     4.79533388     7.74832268     7.99218216
          8.52889196     9.06299730     9.71942979    10.76875081

3 B2u    -0.61425838     0.10813118     0.42386290     0.55798370     0.94453472
          1.04146137     1.57781020     2.09389005     2.81240637     3.05244850
          3.12368543     3.15667797     4.79533388     7.74832268     7.99218216
          8.52889196     9.06299730     9.71942979    10.76875081

4 B1g     0.31712998     0.98952169     1.19455652     2.65858253     2.84004631
          3.16188336     3.85233234     7.82328493     8.02986803     9.29822793
          9.56260887

5 B1u   -15.68009275    -0.77933463     0.07123351     0.24431053     0.40722785
          0.42076238     0.61256470     0.91926466     1.05596426     1.18000358
          1.40006951     1.69657900     1.83007761     2.95452438     3.08532443
          3.10204042     3.10329083     3.43743604     3.54670874     5.13581103
          5.24142377     5.73790052

6 B2g     0.10795936     0.17940682     0.42233377     0.85220206     1.18199791
          1.18581374     1.75458723     2.93702023     3.13843802     3.35098532
          3.56021471     3.90576170     5.76506580     8.31906701     8.89442519
          8.90572513     9.35958396    11.14762551    13.18294478

7 B3g     0.10795936     0.17940682     0.42233377     0.85220206     1.18199791
          1.18581374     1.75458723     2.93702023     3.13843802     3.35098532
          3.56021471     3.90576170     5.76506580     8.31906701     8.89442519
          8.90572513     9.35958396    11.14762551    13.18294478

8 Au      0.42076238     1.05596426     1.69657900     3.08532443     3.10204042
          3.43743604     5.13581103     8.35615973     8.84968618    10.32465467
         10.57983581

    E(LUMO) :     0.07123351 au (symmetry 5)
  - E(HOMO) :    -0.61425838 au (symmetry 3)
  ------------------------------------------
    gap     :     0.68549189 au

 --- Writing SIRIFC interface file

 CPU and wall time for SCF :       3.996       3.999


                       .-----------------------------------.
                       | --- Final results from SIRIUS --- |
                       `-----------------------------------'


@    Spin multiplicity:           1
@    Spatial symmetry:            1 ( irrep  Ag  in D2h )
@    Total charge of molecule:    0

@    Final HF energy:            -108.991557857236                 
@    Nuclear repulsion:            23.622199082109
@    Electronic energy:          -132.613756939344

@    Final gradient norm:           0.000006367992

 
     Date and time (Linux)  : Wed Jan 11 14:15:36 2023
     Host name              : cn020                                   

File label for MO orbitals:  11Jan23   FOCKDIIS

 (Only coefficients > 0.0100 are printed.)

 Molecular orbitals for symmetry species 1  (Ag )
 ------------------------------------------------

    Orbital         1        2        3        4        5        6        7
   1 N_b :1s     0.7071  -0.0069   0.0014   0.0086   0.0123  -0.0000   0.0055
   2 N_b :1s     0.0013   0.6687   0.2311   0.1362   0.1585  -0.0000  -0.0605
   3 N_b :1s    -0.0001  -0.0041  -0.0036   0.0222   0.0270  -0.0000   0.0040
   4 N_b :1s    -0.0021  -0.1156   0.0642  -0.2909   0.5450  -0.0000   1.6693
   5 N_b :1s     0.0001  -0.1174   0.1357   0.1541   1.6858   0.0000   2.6763
   6 N_b :1s     0.0001   0.0044   0.0126  -0.7538  -1.0414   0.0000  -1.4924
   7 N_b :2pz   -0.0068  -0.3417   0.6969   0.1060   0.0641  -0.0000   0.1490
   8 N_b :2pz    0.0026   0.0072  -0.0072   0.0256  -0.0394   0.0000  -0.1240
   9 N_b :2pz    0.0024   0.0539  -0.0601  -0.0280  -0.0816   0.0000  -0.1493
  10 N_b :2pz    0.0002   0.0416  -0.0433  -0.2152   1.7283   0.0000   3.8330
  11 N_b :2pz   -0.0003  -0.0041   0.0083  -1.6422   2.4870   0.0000   2.7423
  14 N_b :3d0    0.0004   0.0222  -0.0202   0.0021   0.0275  -0.0000   0.0227
  15 N_b :3d2+  -0.0000   0.0000   0.0000   0.0000   0.0000   0.0453  -0.0000
  16 N_b :3d0    0.0008   0.0301  -0.0188   0.0447  -0.2985   0.0000  -0.7433
  17 N_b :3d2+   0.0000  -0.0000  -0.0000  -0.0000  -0.0000  -0.0940  -0.0000
  18 N_b :3d0    0.0006   0.0110  -0.0139   0.3389  -1.0526  -0.0000  -2.7325
  19 N_b :3d2+  -0.0000   0.0000   0.0000   0.0000   0.0000   0.5730   0.0000
  22 N_b :4f0   -0.0002  -0.0086   0.0053  -0.0095   0.0216  -0.0000   0.0736
  24 N_b :4f0   -0.0002  -0.0061   0.0031  -0.0389   0.1799  -0.0000   0.4199
  29 N_b :5g0   -0.0000   0.0017  -0.0007   0.0069  -0.0156   0.0000  -0.0417

    Orbital         8        9       10       11       12       13
   1 N_b :1s    -0.0396   0.0007  -0.0000  -0.0183  -0.0000   0.0522
   2 N_b :1s     0.1329   0.2723   0.0000  -0.0601  -0.0000   0.2637
   3 N_b :1s    -0.1287  -0.0553   0.0000  -0.0906  -0.0000   0.0687
   4 N_b :1s    -1.0355   3.9341  -0.0000   2.4309   0.0000   7.4849
   5 N_b :1s    -2.9429   0.8372  -0.0000   0.3491   0.0000  -0.3506
   6 N_b :1s     1.6968  -1.2504   0.0000  -0.6452  -0.0000  -1.6040
   7 N_b :2pz    0.3009   0.0158   0.0000   0.1103  -0.0000   0.6381
   8 N_b :2pz    0.0769  -0.3030  -0.0000  -0.1085   0.0000  -0.5622
   9 N_b :2pz    0.3593  -0.1255  -0.0000   0.0780   0.0000  -0.5150
  10 N_b :2pz   -4.7190   6.2090  -0.0000   2.9616   0.0000   9.1063
  11 N_b :2pz   -0.8481   1.6956  -0.0000   0.8716  -0.0000   1.2451
  12 N_b :3d0    0.0063   0.0190  -0.0000   0.0007   0.0000  -0.0177
  13 N_b :3d2+  -0.0000  -0.0000   0.0328  -0.0000  -0.0153  -0.0000
  14 N_b :3d0   -0.0898   0.0919  -0.0000   0.0312   0.0000   0.1421
  15 N_b :3d2+   0.0000   0.0000  -0.0387   0.0000   0.0444   0.0000
  16 N_b :3d0    0.9775  -1.2311   0.0000  -0.4435   0.0000  -3.8772
  17 N_b :3d2+  -0.0000  -0.0000   0.6683  -0.0000  -0.5908  -0.0000
  18 N_b :3d0    1.7096  -2.9466   0.0000  -1.4172  -0.0000  -3.0967
  19 N_b :3d2+   0.0000   0.0000  -0.3722   0.0000   0.1517   0.0000
  20 N_b :4f0    0.0060  -0.0232   0.0000   0.0204  -0.0000  -0.0362
  21 N_b :4f2+  -0.0000   0.0000  -0.0120  -0.0000  -0.0252  -0.0000
  22 N_b :4f0   -0.0834   0.1968  -0.0000  -0.0800  -0.0000   0.4632
  23 N_b :4f2+   0.0000  -0.0000   0.0298   0.0000   0.1320   0.0000
  24 N_b :4f0   -0.4359   0.5547  -0.0000   1.1831  -0.0000   1.3225
  25 N_b :4f2+  -0.0000   0.0000  -0.1941  -0.0000  -0.8911  -0.0000
  26 N_b :5g0    0.0078  -0.0109  -0.0000   0.0064   0.0000  -0.0356
  29 N_b :5g0    0.0331  -0.0818   0.0000  -0.0630  -0.0000  -0.1544
  30 N_b :5g2+   0.0000   0.0000  -0.0215   0.0000   0.0719   0.0000

 Molecular orbitals for symmetry species 2  (B3u)
 ------------------------------------------------

    Orbital         1        2        3        4        5        6        7
   1 N_b :2px    0.6327  -0.1118  -0.0407  -0.4495   0.0000  -0.1053   0.2040
   2 N_b :2px   -0.0051  -0.0152   0.0157   0.0753  -0.0000   0.0145  -0.0418
   3 N_b :2px   -0.0176   0.0792   0.2233  -0.5217  -0.0000   0.8922   1.7490
   4 N_b :2px   -0.0331  -0.2483   0.6869   1.0881  -0.0000   0.2000  -0.4775
   5 N_b :2px    0.0023   0.6455  -0.2444  -0.3888   0.0000  -0.1124  -0.0004
   6 N_b :3d1+  -0.0062   0.0018   0.0019   0.0038   0.0000  -0.0058   0.0516
   7 N_b :3d1+  -0.0266   0.0003   0.0003   0.0527   0.0000  -0.1218  -0.1729
   8 N_b :3d1+  -0.0295   0.0245   0.0144  -0.0295  -0.0000  -0.0554   1.2983
   9 N_b :3d1+  -0.0058  -0.0236   1.5639  -0.3046   0.0000   1.4059   0.9126
  10 N_b :4f1+   0.0030   0.0016  -0.0030  -0.0125  -0.0000  -0.0040   0.0014
  11 N_b :4f3+  -0.0000  -0.0000  -0.0000  -0.0000  -0.0241   0.0000   0.0000
  12 N_b :4f1+   0.0079  -0.0130   0.0118   0.0440   0.0000   0.0074  -0.0396
  13 N_b :4f3+  -0.0000   0.0000   0.0000   0.0000   0.1114   0.0000  -0.0000
  14 N_b :4f1+   0.0028  -0.0050  -0.4197   0.1322   0.0000  -1.4463  -1.8581
  15 N_b :4f3+   0.0000  -0.0000  -0.0000  -0.0000  -0.6136  -0.0000   0.0000
  16 N_b :5g1+  -0.0017  -0.0007  -0.0082   0.0089   0.0000  -0.0205  -0.0089
  18 N_b :5g1+  -0.0017   0.0109   0.0628  -0.0714  -0.0000   0.2085   0.2414
  19 N_b :5g3+  -0.0000   0.0000   0.0000   0.0000  -0.0131   0.0000  -0.0000

    Orbital         8        9       10       11
   1 N_b :2px   -0.7615   0.0000  -0.3097   0.0000
   2 N_b :2px   -0.4081  -0.0000  -0.3303  -0.0000
   3 N_b :2px    2.0662  -0.0000   0.3904  -0.0000
   4 N_b :2px   -0.6176  -0.0000  -0.0683  -0.0000
   5 N_b :2px    0.1942   0.0000   0.0350   0.0000
   6 N_b :3d1+   0.0147  -0.0000   0.0092  -0.0000
   7 N_b :3d1+  -0.0965  -0.0000  -0.5582  -0.0000
   8 N_b :3d1+   0.4293   0.0000   0.3416  -0.0000
   9 N_b :3d1+   0.1931   0.0000  -0.2945   0.0000
  10 N_b :4f1+   0.0368   0.0000   0.0179   0.0000
  11 N_b :4f3+   0.0000  -0.0397  -0.0000  -0.0606
  12 N_b :4f1+  -0.2696   0.0000  -0.0853   0.0000
  13 N_b :4f3+   0.0000   0.4492   0.0000   0.7329
  14 N_b :4f1+  -0.3724  -0.0000   0.1386   0.0000
  15 N_b :4f3+  -0.0000  -0.2586  -0.0000  -0.2355
  16 N_b :5g1+  -0.0261  -0.0000   0.0760  -0.0000
  17 N_b :5g3+  -0.0000   0.0818  -0.0000  -0.0816
  18 N_b :5g1+   0.3399   0.0000  -0.5204   0.0000
  19 N_b :5g3+   0.0000  -0.4673   0.0000   0.5099

 Molecular orbitals for symmetry species 3  (B2u)
 ------------------------------------------------

    Orbital         1        2        3        4        5        6        7
   1 N_b :2py    0.6327  -0.1118  -0.0407  -0.4495  -0.0000  -0.1053   0.2040
   2 N_b :2py   -0.0051  -0.0152   0.0157   0.0753   0.0000   0.0145  -0.0418
   3 N_b :2py   -0.0176   0.0792   0.2233  -0.5217   0.0000   0.8922   1.7490
   4 N_b :2py   -0.0331  -0.2483   0.6869   1.0881   0.0000   0.2000  -0.4775
   5 N_b :2py    0.0023   0.6455  -0.2444  -0.3888  -0.0000  -0.1124  -0.0004
   6 N_b :3d1-  -0.0062   0.0018   0.0019   0.0038  -0.0000  -0.0058   0.0516
   7 N_b :3d1-  -0.0266   0.0003   0.0003   0.0527  -0.0000  -0.1218  -0.1729
   8 N_b :3d1-  -0.0295   0.0245   0.0144  -0.0295   0.0000  -0.0554   1.2983
   9 N_b :3d1-  -0.0058  -0.0236   1.5639  -0.3046  -0.0000   1.4059   0.9126
  10 N_b :4f3-   0.0000   0.0000   0.0000   0.0000  -0.0241  -0.0000  -0.0000
  11 N_b :4f1-   0.0030   0.0016  -0.0030  -0.0125   0.0000  -0.0040   0.0014
  12 N_b :4f3-   0.0000  -0.0000  -0.0000  -0.0000   0.1114  -0.0000   0.0000
  13 N_b :4f1-   0.0079  -0.0130   0.0118   0.0440  -0.0000   0.0074  -0.0396
  14 N_b :4f3-  -0.0000   0.0000   0.0000   0.0000  -0.6136   0.0000  -0.0000
  15 N_b :4f1-   0.0028  -0.0050  -0.4197   0.1322  -0.0000  -1.4463  -1.8581
  17 N_b :5g1-  -0.0017  -0.0007  -0.0082   0.0089  -0.0000  -0.0205  -0.0089
  18 N_b :5g3-   0.0000  -0.0000  -0.0000  -0.0000  -0.0131  -0.0000   0.0000
  19 N_b :5g1-  -0.0017   0.0109   0.0628  -0.0714   0.0000   0.2085   0.2414

    Orbital         8        9       10       11
   1 N_b :2py   -0.7615  -0.0000  -0.3097  -0.0000
   2 N_b :2py   -0.4081   0.0000  -0.3303   0.0000
   3 N_b :2py    2.0662   0.0000   0.3904   0.0000
   4 N_b :2py   -0.6176   0.0000  -0.0683   0.0000
   5 N_b :2py    0.1942  -0.0000   0.0350  -0.0000
   6 N_b :3d1-   0.0147   0.0000   0.0092   0.0000
   7 N_b :3d1-  -0.0965   0.0000  -0.5582   0.0000
   8 N_b :3d1-   0.4293  -0.0000   0.3416   0.0000
   9 N_b :3d1-   0.1931  -0.0000  -0.2945  -0.0000
  10 N_b :4f3-  -0.0000  -0.0397   0.0000  -0.0606
  11 N_b :4f1-   0.0368  -0.0000   0.0179  -0.0000
  12 N_b :4f3-  -0.0000   0.4492  -0.0000   0.7329
  13 N_b :4f1-  -0.2696  -0.0000  -0.0853  -0.0000
  14 N_b :4f3-   0.0000  -0.2586   0.0000  -0.2355
  15 N_b :4f1-  -0.3724   0.0000   0.1386  -0.0000
  16 N_b :5g3-   0.0000   0.0818   0.0000  -0.0816
  17 N_b :5g1-  -0.0261   0.0000   0.0760   0.0000
  18 N_b :5g3-  -0.0000  -0.4673  -0.0000   0.5099
  19 N_b :5g1-   0.3399  -0.0000  -0.5204  -0.0000

 Molecular orbitals for symmetry species 4  (B1g)
 ------------------------------------------------

    Orbital         1        2        3        4        5        6        7
   1 N_b :3d2-   0.0036   0.0328  -0.0153   0.0000   0.0218  -0.0083  -0.0386
   2 N_b :3d2-  -0.0453  -0.0387   0.0444   0.0000  -0.5711   0.3800   0.8138
   3 N_b :3d2-   0.0940   0.6683  -0.5908   0.0000   0.4866  -0.5057  -0.1763
   4 N_b :3d2-  -0.5730  -0.3722   0.1517   0.0000  -0.1791   0.1236   0.0339
   5 N_b :4f2-  -0.0012  -0.0120  -0.0252   0.0000  -0.0355  -0.0492  -0.0130
   6 N_b :4f2-   0.0079   0.0298   0.1320   0.0000   0.4696   0.6543   0.0746
   7 N_b :4f2-  -0.0027  -0.1941  -0.8911   0.0000  -0.2119  -0.5685   0.2253
   8 N_b :5g4-   0.0000   0.0000   0.0000  -0.1102   0.0000   0.0000   0.0000
   9 N_b :5g2-   0.0029   0.0095  -0.0089   0.0000   0.0300  -0.0688   0.1102
  10 N_b :5g4-   0.0000   0.0000   0.0000   0.6704   0.0000   0.0000   0.0000
  11 N_b :5g2-  -0.0094  -0.0215   0.0719   0.0000  -0.1280   0.6096  -0.9526

    Orbital         8        9       10
   1 N_b :3d2-  -0.0944   0.0000  -0.1470
   2 N_b :3d2-   0.0139   0.0000   0.1687
   3 N_b :3d2-  -0.1365   0.0000  -0.1365
   4 N_b :3d2-   0.0553   0.0000   0.0227
   5 N_b :4f2-   0.3473   0.0000  -0.7971
   6 N_b :4f2-  -0.2091   0.0000   0.4674
   7 N_b :4f2-  -0.0303   0.0000  -0.2394
   8 N_b :5g4-   0.0000   0.8295   0.0000
   9 N_b :5g2-  -0.6604   0.0000  -0.3737
  10 N_b :5g4-   0.0000  -0.3376   0.0000
  11 N_b :5g2-   0.4726   0.0000   0.1905

 Molecular orbitals for symmetry species 5  (B1u)
 ------------------------------------------------

    Orbital         1        2        3        4        5        6        7
   1 N_b :1s     0.7075   0.0021   0.0014  -0.0095   0.0084   0.0000   0.0048
   2 N_b :1s     0.0012   0.6492  -0.0636  -0.2036   0.0207   0.0000  -0.3013
   3 N_b :1s     0.0009  -0.0002   0.0684  -0.1608  -0.0115   0.0000   0.3401
   4 N_b :1s    -0.0050   0.0163  -0.5634   1.2002   0.5940  -0.0000  -2.6528
   5 N_b :1s     0.0053   0.1268  -6.2970  13.9065  10.6667  -0.0000 -33.4742
   6 N_b :1s     0.0008   0.0094 -13.9621  26.1905   4.3196   0.0000 -27.3979
   7 N_b :2pz   -0.0062   0.3258  -0.0321  -0.0500   0.0541  -0.0000  -0.0233
   8 N_b :2pz    0.0025  -0.0046  -0.0057   0.0108   0.0352   0.0000  -0.0296
   9 N_b :2pz    0.0047  -0.0258   0.6895  -1.5145  -0.8405   0.0000   3.3936
  10 N_b :2pz   -0.0006  -0.0617   3.2145  -7.3998  -4.1726   0.0000  16.7931
  11 N_b :2pz   -0.0001   0.0016   3.3280  -4.7507  -0.8035  -0.0000   4.2691
  12 N_b :3d0    0.0002  -0.0015   0.0048  -0.0084  -0.0039   0.0000   0.0247
  14 N_b :3d0   -0.0002  -0.0043  -0.0488   0.1158   0.0561   0.0000  -0.2220
  15 N_b :3d2+  -0.0000  -0.0000   0.0000   0.0000   0.0000   0.0140   0.0000
  16 N_b :3d0   -0.0005  -0.0014  -0.3444   0.7823   0.4609   0.0000  -1.6960
  17 N_b :3d2+  -0.0000  -0.0000   0.0000   0.0000   0.0000   0.3355   0.0000
  18 N_b :3d0    0.0003   0.0036  -0.5751   1.2111   2.0825  -0.0000  -2.3029
  19 N_b :3d2+  -0.0000  -0.0000   0.0000   0.0000   0.0000   2.1134   0.0000
  22 N_b :4f0    0.0001  -0.0006   0.0388  -0.0883  -0.0272  -0.0000   0.1880
  23 N_b :4f2+   0.0000   0.0000  -0.0000  -0.0000  -0.0000  -0.0259  -0.0000
  24 N_b :4f0    0.0002   0.0009   0.0454  -0.0707  -0.3751   0.0000   0.1201
  25 N_b :4f2+   0.0000   0.0000  -0.0000  -0.0000  -0.0000  -0.5398  -0.0000
  26 N_b :5g0   -0.0001   0.0001  -0.0035   0.0089  -0.0056   0.0000  -0.0197
  27 N_b :5g2+   0.0000  -0.0000   0.0000   0.0000   0.0000  -0.0105   0.0000
  29 N_b :5g0    0.0000  -0.0005  -0.0030   0.0017   0.0472   0.0000   0.0012
  30 N_b :5g2+  -0.0000  -0.0000   0.0000   0.0000   0.0000   0.0804   0.0000

    Orbital         8        9       10       11       12
   1 N_b :1s    -0.0223   0.0000   0.0291   0.0212  -0.0000
   2 N_b :1s    -0.2274   0.0000   0.5768  -0.1051  -0.0000
   3 N_b :1s    -0.1481   0.0000   0.4374  -0.1967  -0.0000
   4 N_b :1s     0.0046  -0.0000  -4.9863  -2.1812   0.0000
   5 N_b :1s     0.6131  -0.0000 -39.0083  38.7529  -0.0000
   6 N_b :1s     4.6372   0.0000 -14.7028  14.4525  -0.0000
   7 N_b :2pz    0.6612  -0.0000  -0.3963  -0.4649   0.0000
   8 N_b :2pz   -0.0296   0.0000  -0.0686   0.1547  -0.0000
   9 N_b :2pz   -0.2109   0.0000   5.4546  -3.0580  -0.0000
  10 N_b :2pz   -1.4167   0.0000  16.7244 -16.1224  -0.0000
  11 N_b :2pz   -0.6619  -0.0000   2.1970  -2.0433   0.0000
  12 N_b :3d0    0.0119   0.0000   0.0213  -0.0255  -0.0000
  13 N_b :3d2+  -0.0000  -0.0062   0.0000  -0.0000  -0.0399
  14 N_b :3d0    0.0946   0.0000  -0.3794   0.2539  -0.0000
  15 N_b :3d2+   0.0000  -0.0319  -0.0000   0.0000   0.0790
  16 N_b :3d0    0.2811   0.0000  -3.1481   0.7116  -0.0000
  17 N_b :3d2+   0.0000   1.1952  -0.0000  -0.0000  -3.3828
  18 N_b :3d0   -0.7821  -0.0000  -2.8221   1.0899  -0.0000
  19 N_b :3d2+   0.0000   1.8738  -0.0000  -0.0000  -1.0414
  20 N_b :4f0   -0.0032  -0.0000   0.0129  -0.0191   0.0000
  21 N_b :4f2+   0.0000   0.0035  -0.0000   0.0000  -0.0267
  22 N_b :4f0   -0.0458  -0.0000   0.3084  -0.0807   0.0000
  23 N_b :4f2+  -0.0000  -0.1422   0.0000   0.0000   0.3377
  24 N_b :4f0    0.7877   0.0000   1.4109   1.7889   0.0000
  25 N_b :4f2+  -0.0000  -1.9088   0.0000   0.0000   2.2437
  26 N_b :5g0    0.0207   0.0000  -0.0038   0.0488  -0.0000
  27 N_b :5g2+   0.0000  -0.0260  -0.0000  -0.0000   0.0162
  29 N_b :5g0   -0.1105   0.0000  -0.1641  -0.2799  -0.0000
  30 N_b :5g2+   0.0000   0.2702  -0.0000  -0.0000  -0.3669

 Molecular orbitals for symmetry species 6  (B2g)
 ------------------------------------------------

    Orbital         1        2        3        4        5        6        7
   1 N_b :2px    0.3055  -0.5212   0.4021  -0.4819   0.0000   0.0980   0.7301
   2 N_b :2px   -0.0183  -0.0208  -0.0706  -0.0885  -0.0000  -0.1820  -0.2244
   3 N_b :2px    0.2347   0.3342   1.1389   2.0195  -0.0000   1.5580   5.0747
   4 N_b :2px    1.6732   2.3237   8.5666  13.5381   0.0000   5.5679  14.1536
   5 N_b :2px    2.7950   2.8502   3.3317   1.9929  -0.0000   1.2249   1.4143
   6 N_b :3d1+   0.0039  -0.0006   0.0103   0.0170  -0.0000   0.0098   0.0272
   7 N_b :3d1+  -0.0068  -0.0360  -0.0714  -0.1609  -0.0000  -0.0269  -0.3590
   8 N_b :3d1+  -0.2648  -0.4719  -1.4645  -3.0254   0.0000  -1.2198  -6.6955
   9 N_b :3d1+  -0.7817  -1.3574  -4.0297  -4.4622  -0.0000  -2.0798  -4.0252
  10 N_b :4f1+  -0.0015   0.0004  -0.0058  -0.0128   0.0000   0.0095  -0.0289
  11 N_b :4f3+  -0.0000   0.0000  -0.0000   0.0000   0.0232   0.0000  -0.0000
  12 N_b :4f1+   0.0323   0.0564   0.1838   0.4465   0.0000   0.0200   0.9050
  13 N_b :4f3+  -0.0000   0.0000  -0.0000   0.0000  -0.1181   0.0000  -0.0000
  14 N_b :4f1+   0.1240   0.2101   0.6178   0.9885  -0.0000   1.3950   1.8947
  15 N_b :4f3+  -0.0000   0.0000  -0.0000   0.0000   1.2532  -0.0000  -0.0000
  16 N_b :5g1+  -0.0014  -0.0019  -0.0092  -0.0286  -0.0000   0.0134  -0.0589
  17 N_b :5g3+  -0.0000   0.0000  -0.0000   0.0000   0.0191   0.0000  -0.0000
  18 N_b :5g1+  -0.0165  -0.0260  -0.0783  -0.1408  -0.0000  -0.1102  -0.2847
  19 N_b :5g3+   0.0000  -0.0000   0.0000  -0.0000  -0.1076  -0.0000   0.0000

    Orbital         8        9       10
   1 N_b :2px    0.4428  -0.0000   0.4800
   2 N_b :2px    0.5744   0.0000   0.6105
   3 N_b :2px   -2.9821   0.0000  -9.7987
   4 N_b :2px   -3.2074   0.0000 -11.3129
   5 N_b :2px   -0.5325   0.0000  -0.9705
   6 N_b :3d1+   0.0115   0.0000  -0.1141
   7 N_b :3d1+   0.1099   0.0000   0.5154
   8 N_b :3d1+   1.8164  -0.0000   8.2701
   9 N_b :3d1+   1.0032   0.0000   2.9356
  10 N_b :4f1+  -0.0202  -0.0000   0.0426
  11 N_b :4f3+  -0.0000  -0.0395  -0.0000
  12 N_b :4f1+   0.5023   0.0000  -1.9757
  13 N_b :4f3+  -0.0000   0.5001  -0.0000
  14 N_b :4f1+  -1.0178   0.0000  -1.9132
  15 N_b :4f3+  -0.0000  -0.8197  -0.0000
  16 N_b :5g1+  -0.0708   0.0000   0.0965
  17 N_b :5g3+  -0.0000  -0.0945  -0.0000
  18 N_b :5g1+   0.3077   0.0000   0.8181
  19 N_b :5g3+   0.0000   0.8445   0.0000

 Molecular orbitals for symmetry species 7  (B3g)
 ------------------------------------------------

    Orbital         1        2        3        4        5        6        7
   1 N_b :2py    0.3055  -0.5212   0.4021  -0.4819  -0.0000   0.0980   0.7301
   2 N_b :2py   -0.0183  -0.0208  -0.0706  -0.0885   0.0000  -0.1820  -0.2244
   3 N_b :2py    0.2347   0.3342   1.1389   2.0195   0.0000   1.5580   5.0747
   4 N_b :2py    1.6732   2.3237   8.5666  13.5381  -0.0000   5.5679  14.1536
   5 N_b :2py    2.7950   2.8502   3.3317   1.9929   0.0000   1.2249   1.4143
   6 N_b :3d1-   0.0039  -0.0006   0.0103   0.0170   0.0000   0.0098   0.0272
   7 N_b :3d1-  -0.0068  -0.0360  -0.0714  -0.1609   0.0000  -0.0269  -0.3590
   8 N_b :3d1-  -0.2648  -0.4719  -1.4645  -3.0254  -0.0000  -1.2198  -6.6955
   9 N_b :3d1-  -0.7817  -1.3574  -4.0297  -4.4622   0.0000  -2.0798  -4.0252
  10 N_b :4f3-   0.0000  -0.0000   0.0000  -0.0000   0.0232  -0.0000   0.0000
  11 N_b :4f1-  -0.0015   0.0004  -0.0058  -0.0128  -0.0000   0.0095  -0.0289
  12 N_b :4f3-   0.0000  -0.0000   0.0000  -0.0000  -0.1181  -0.0000   0.0000
  13 N_b :4f1-   0.0323   0.0564   0.1838   0.4465  -0.0000   0.0200   0.9050
  14 N_b :4f3-   0.0000  -0.0000   0.0000  -0.0000   1.2532   0.0000   0.0000
  15 N_b :4f1-   0.1240   0.2101   0.6178   0.9885   0.0000   1.3950   1.8947
  16 N_b :5g3-   0.0000  -0.0000   0.0000  -0.0000   0.0191  -0.0000   0.0000
  17 N_b :5g1-  -0.0014  -0.0019  -0.0092  -0.0286   0.0000   0.0134  -0.0589
  18 N_b :5g3-  -0.0000   0.0000  -0.0000   0.0000  -0.1076   0.0000  -0.0000
  19 N_b :5g1-  -0.0165  -0.0260  -0.0783  -0.1408   0.0000  -0.1102  -0.2847

    Orbital         8        9       10
   1 N_b :2py    0.4428   0.0000   0.4800
   2 N_b :2py    0.5744  -0.0000   0.6105
   3 N_b :2py   -2.9821  -0.0000  -9.7987
   4 N_b :2py   -3.2074  -0.0000 -11.3129
   5 N_b :2py   -0.5325  -0.0000  -0.9705
   6 N_b :3d1-   0.0115  -0.0000  -0.1141
   7 N_b :3d1-   0.1099  -0.0000   0.5154
   8 N_b :3d1-   1.8164   0.0000   8.2701
   9 N_b :3d1-   1.0032  -0.0000   2.9356
  10 N_b :4f3-   0.0000  -0.0395   0.0000
  11 N_b :4f1-  -0.0202   0.0000   0.0426
  12 N_b :4f3-   0.0000   0.5001   0.0000
  13 N_b :4f1-   0.5023  -0.0000  -1.9757
  14 N_b :4f3-   0.0000  -0.8197   0.0000
  15 N_b :4f1-  -1.0178  -0.0000  -1.9132
  16 N_b :5g3-   0.0000  -0.0945   0.0000
  17 N_b :5g1-  -0.0708  -0.0000   0.0965
  18 N_b :5g3-  -0.0000   0.8445  -0.0000
  19 N_b :5g1-   0.3077  -0.0000   0.8181

 Molecular orbitals for symmetry species 8  (Au )
 ------------------------------------------------

    Orbital         1        2        3        4        5        6        7
   1 N_b :3d2-  -0.0007  -0.0062   0.0399  -0.0261   0.0000  -0.0132  -0.0002
   2 N_b :3d2-   0.0140  -0.0319  -0.0790   0.2119   0.0000   0.8459   0.8495
   3 N_b :3d2-   0.3355   1.1952   3.3828   2.6213   0.0000  -3.3168   3.7656
   4 N_b :3d2-   2.1134   1.8738   1.0414   0.9275   0.0000  -0.3409   0.4426
   5 N_b :4f2-   0.0003   0.0035   0.0267   0.0215   0.0000  -0.0690   0.1031
   6 N_b :4f2-  -0.0259  -0.1422  -0.3377  -0.4141   0.0000   1.0061  -2.7883
   7 N_b :4f2-  -0.5398  -1.9088  -2.2437  -1.7047   0.0000   1.4163  -1.4691
   8 N_b :5g4-   0.0000   0.0000   0.0000   0.0000  -0.1242   0.0000   0.0000
   9 N_b :5g2-  -0.0105  -0.0260  -0.0162  -0.0994   0.0000  -0.0210  -0.0398
  10 N_b :5g4-   0.0000   0.0000   0.0000   0.0000   0.9183   0.0000   0.0000
  11 N_b :5g2-   0.0804   0.2702   0.3669   1.2587   0.0000  -0.6516   1.6227

    Orbital         8        9       10
   1 N_b :3d2-   0.0000  -0.3399  -0.9478
   2 N_b :3d2-   0.0000  -0.0220   1.2528
   3 N_b :3d2-   0.0000  -0.7768   0.7550
   4 N_b :3d2-   0.0000   0.1754   0.0237
   5 N_b :4f2-   0.0000  -0.4519   0.4153
   6 N_b :4f2-   0.0000   1.0425  -1.4469
   7 N_b :4f2-   0.0000   0.0469  -0.1684
   8 N_b :5g4-  -0.8667   0.0000   0.0000
   9 N_b :5g2-   0.0000  -0.8037   0.2849
  10 N_b :5g4-   0.4489   0.0000   0.0000
  11 N_b :5g2-   0.0000  -0.0414   0.5515

  Total CPU  time used in SIRIUS :   4.01 seconds
  Total wall time used in SIRIUS :   4.02 seconds

 
     Date and time (Linux)  : Wed Jan 11 14:15:36 2023
     Host name              : cn020                                   


                     .---------------------------------------.
                     | End of Wave Function Section (SIRIUS) |
                     `---------------------------------------'



                 .------------------------------------------------.
                 | Starting in Dynamic Property Section (RESPONS) |
                 `------------------------------------------------'


 ----------------------------------------------------------------------------------------
  RESPONSE  -  an MCSCF, MC-srDFT, DFT, SOPPA and SOPPA-srDFT response property program
 ----------------------------------------------------------------------------------------


 -------- OUTPUT FROM RESPONSE INPUT PROCESSING --------




 Linear Response calculation
 ---------------------------

 Print level                                    : IPRLR  =   2
 Maximum number of iterations                   : MAXITL =  60
 Threshold for relative convergence             : THCLR  = 1.000D-03
 Maximum iterations in optimal orbital algorithm: MAXITO =   5

  9 B-frequencies  0.000000D+00  1.825019D-02  3.650038D-02  5.475056D-02  7.300075D-02
  9.125094D-02  1.095011D-01  1.277513D-01  1.460015D-01

    1 second order properties calculated with symmetry no.    2 and labels:

          XDIPLEN 

    1 second order properties calculated with symmetry no.    3 and labels:

          YDIPLEN 

    1 second order properties calculated with symmetry no.    5 and labels:

          ZDIPLEN 


   SCF energy         :     -108.991557857235506
 -- inactive part     :     -132.613756939344341
 -- nuclear repulsion :       23.622199082108835


                     ***************************************
                     *** RHF response calculation (TDHF) ***
                     ***************************************

 ----------------------------------------------------------------
 ----- Linear response calculation
 ----- Symmetry of excitation/property operator(s)    2  ( B3u)
 ----------------------------------------------------------------

 Number of excitations of this symmetry            0
 Number of response properties of this symmetry    1
 Number of C6/C8 properties of this symmetry       0


 Perturbation symmetry.     KSYMOP:           2
 Perturbation spin symmetry.TRPLET:           F
 Orbital variables.         KZWOPT:         131
 Configuration variables.   KZCONF:           0
 Total number of variables. KZVAR :         131


 RSPLR -- linear response calculation for symmetry 2  ( B3u)
 RSPLR -- operator label : XDIPLEN 
 RSPLR -- operator spin  :   0
 RSPLR -- frequencies    :     0.000000  0.018250  0.036500  0.054751  0.073001
                               0.091251  0.109501  0.127751  0.146002



 ---  SOLVING SETS OF LINEAR EQUATIONS FOR LINEAR RESPONSE PROPERTIES ---

 Operator symmetry = 2  ( B3u); triplet =   F

RSPORT:    1 out of    9 new trial vectors linear dependent

 ** RSPCTL MICROITERATION NUMBER    1

       No.  Residual tot.,    conf., and orb.    Bnorm      Frequency 
      ----------------------------------------------------------------
         1    8.19948D-01  0.00D+00  8.20D-01  2.35D+00    0.00000D+00
         2    8.20433D-01  0.00D+00  8.20D-01  2.35D+00    1.82502D-02
         3    8.21892D-01  0.00D+00  8.22D-01  2.36D+00    3.65004D-02
         4    8.24343D-01  0.00D+00  8.24D-01  2.37D+00    5.47506D-02
         5    8.27813D-01  0.00D+00  8.28D-01  2.40D+00    7.30008D-02
         6    8.32344D-01  0.00D+00  8.32D-01  2.43D+00    9.12509D-02
         7    8.37990D-01  0.00D+00  8.38D-01  2.47D+00    1.09501D-01
         8    8.44823D-01  0.00D+00  8.45D-01  2.51D+00    1.27751D-01
         9    8.52931D-01  0.00D+00  8.53D-01  2.56D+00    1.46002D-01

 ** RSPCTL MICROITERATION NUMBER    2

       No.  Residual tot.,    conf., and orb.    Bnorm      Frequency 
      ----------------------------------------------------------------
         1    5.69108D-02  0.00D+00  5.69D-02  2.40D+00    0.00000D+00
         2    5.69523D-02  0.00D+00  5.70D-02  2.40D+00    1.82502D-02
         3    5.70775D-02  0.00D+00  5.71D-02  2.41D+00    3.65004D-02
         4    5.72892D-02  0.00D+00  5.73D-02  2.43D+00    5.47506D-02
         5    5.75919D-02  0.00D+00  5.76D-02  2.45D+00    7.30008D-02
         6    5.79925D-02  0.00D+00  5.80D-02  2.48D+00    9.12509D-02
         7    5.85006D-02  0.00D+00  5.85D-02  2.52D+00    1.09501D-01
         8    5.91294D-02  0.00D+00  5.91D-02  2.57D+00    1.27751D-01
         9    5.98967D-02  0.00D+00  5.99D-02  2.62D+00    1.46002D-01

 ** RSPCTL MICROITERATION NUMBER    3

       No.  Residual tot.,    conf., and orb.    Bnorm      Frequency 
      ----------------------------------------------------------------
         1    3.68415D-03  0.00D+00  3.68D-03  2.40D+00    0.00000D+00
         2    3.68536D-03  0.00D+00  3.69D-03  2.40D+00    1.82502D-02
         3    3.68906D-03  0.00D+00  3.69D-03  2.41D+00    3.65004D-02
         4    3.69552D-03  0.00D+00  3.70D-03  2.43D+00    5.47506D-02
         5    3.70518D-03  0.00D+00  3.71D-03  2.45D+00    7.30008D-02
         6    3.71882D-03  0.00D+00  3.72D-03  2.48D+00    9.12509D-02
         7    3.73768D-03  0.00D+00  3.74D-03  2.52D+00    1.09501D-01
         8    3.76367D-03  0.00D+00  3.76D-03  2.57D+00    1.27751D-01
         9    3.79980D-03  0.00D+00  3.80D-03  2.62D+00    1.46002D-01

 ** RSPCTL MICROITERATION NUMBER    4

       No.  Residual tot.,    conf., and orb.    Bnorm      Frequency 
      ----------------------------------------------------------------
         1    1.94269D-04  0.00D+00  1.94D-04  2.40D+00    0.00000D+00
         2    1.94189D-04  0.00D+00  1.94D-04  2.40D+00    1.82502D-02
         3    1.93944D-04  0.00D+00  1.94D-04  2.41D+00    3.65004D-02
         4    1.93528D-04  0.00D+00  1.94D-04  2.43D+00    5.47506D-02
         5    1.92934D-04  0.00D+00  1.93D-04  2.45D+00    7.30008D-02
         6    1.92167D-04  0.00D+00  1.92D-04  2.48D+00    9.12509D-02
         7    1.91263D-04  0.00D+00  1.91D-04  2.52D+00    1.09501D-01
         8    1.90328D-04  0.00D+00  1.90D-04  2.57D+00    1.27751D-01
         9    1.89605D-04  0.00D+00  1.90D-04  2.62D+00    1.46002D-01

 *** THE REQUESTED    9 SOLUTION VECTORS CONVERGED

 Convergence of RSP solution vectors, threshold = 1.00D-03
 ---------------------------------------------------------------
 (dimension of paired reduced space:   70)
 RSP solution vector no.    1; norm of residual   8.10D-05
 RSP solution vector no.    2; norm of residual   8.09D-05
 RSP solution vector no.    3; norm of residual   8.05D-05
 RSP solution vector no.    4; norm of residual   7.97D-05
 RSP solution vector no.    5; norm of residual   7.87D-05
 RSP solution vector no.    6; norm of residual   7.74D-05
 RSP solution vector no.    7; norm of residual   7.59D-05
 RSP solution vector no.    8; norm of residual   7.41D-05
 RSP solution vector no.    9; norm of residual   7.23D-05

 *** RSPCTL MICROITERATIONS CONVERGED


           Final output of second order properties from linear response
           ------------------------------------------------------------


@ Spin symmetry of operators: singlet

 Note that minus the linear response function: - << A; B >>(omega) is printed.
 The results are of quadratic accuracy using Sellers formula.

@ FREQUENCY INDEPENDENT SECOND ORDER PROPERTIES

@ -<< XDIPLEN  ; XDIPLEN  >> =  9.833628526364E+00

@ FREQUENCY DEPENDENT SECOND ORDER PROPERTIES WITH FREQUENCY :

@    a.u.:  1.8250188D-02
@    cm-1:  4.0054531D+03
@    eV  :  4.9661286D-01
@  kJ/mol:  4.7915860D+01
@    nm  :  2.4965964D+03

@ -<< XDIPLEN  ; XDIPLEN  >> =  9.840432568976E+00

@ FREQUENCY DEPENDENT SECOND ORDER PROPERTIES WITH FREQUENCY :

@    a.u.:  3.6500375D-02
@    cm-1:  8.0109063D+03
@    eV  :  9.9322573D-01
@  kJ/mol:  9.5831720D+01
@    nm  :  1.2482982D+03

@ -<< XDIPLEN  ; XDIPLEN  >> =  9.860919105990E+00

@ FREQUENCY DEPENDENT SECOND ORDER PROPERTIES WITH FREQUENCY :

@    a.u.:  5.4750563D-02
@    cm-1:  1.2016359D+04
@    eV  :  1.4898386D+00
@  kJ/mol:  1.4374758D+02
@    nm  :  8.3219881D+02

@ -<< XDIPLEN  ; XDIPLEN  >> =  9.895313691980E+00

@ FREQUENCY DEPENDENT SECOND ORDER PROPERTIES WITH FREQUENCY :

@    a.u.:  7.3000750D-02
@    cm-1:  1.6021813D+04
@    eV  :  1.9864515D+00
@  kJ/mol:  1.9166344D+02
@    nm  :  6.2414911D+02

@ -<< XDIPLEN  ; XDIPLEN  >> =  9.944000155982E+00

@ FREQUENCY DEPENDENT SECOND ORDER PROPERTIES WITH FREQUENCY :

@    a.u.:  9.1250938D-02
@    cm-1:  2.0027266D+04
@    eV  :  2.4830643D+00
@  kJ/mol:  2.3957930D+02
@    nm  :  4.9931929D+02

@ -<< XDIPLEN  ; XDIPLEN  >> =  1.000753299253E+01

@ FREQUENCY DEPENDENT SECOND ORDER PROPERTIES WITH FREQUENCY :

@    a.u.:  1.0950113D-01
@    cm-1:  2.4032719D+04
@    eV  :  2.9796772D+00
@  kJ/mol:  2.8749516D+02
@    nm  :  4.1609940D+02

@ -<< XDIPLEN  ; XDIPLEN  >> =  1.008665583749E+01

@ FREQUENCY DEPENDENT SECOND ORDER PROPERTIES WITH FREQUENCY :

@    a.u.:  1.2775131D-01
@    cm-1:  2.8038172D+04
@    eV  :  3.4762900D+00
@  kJ/mol:  3.3541102D+02
@    nm  :  3.5665663D+02

@ -<< XDIPLEN  ; XDIPLEN  >> =  1.018232730908E+01

@ FREQUENCY DEPENDENT SECOND ORDER PROPERTIES WITH FREQUENCY :

@    a.u.:  1.4600150D-01
@    cm-1:  3.2043625D+04
@    eV  :  3.9729029D+00
@  kJ/mol:  3.8332688D+02
@    nm  :  3.1207455D+02

@ -<< XDIPLEN  ; XDIPLEN  >> =  1.029575610685E+01


 Time used in linear response calculation is      4.15 CPU seconds for symmetry 2
 ----------------------------------------------------------------
 ----- Linear response calculation
 ----- Symmetry of excitation/property operator(s)    3  ( B2u)
 ----------------------------------------------------------------

 Number of excitations of this symmetry            0
 Number of response properties of this symmetry    1
 Number of C6/C8 properties of this symmetry       0


 Perturbation symmetry.     KSYMOP:           3
 Perturbation spin symmetry.TRPLET:           F
 Orbital variables.         KZWOPT:         131
 Configuration variables.   KZCONF:           0
 Total number of variables. KZVAR :         131


 RSPLR -- linear response calculation for symmetry 3  ( B2u)
 RSPLR -- operator label : YDIPLEN 
 RSPLR -- operator spin  :   0
 RSPLR -- frequencies    :     0.000000  0.018250  0.036500  0.054751  0.073001
                               0.091251  0.109501  0.127751  0.146002



 ---  SOLVING SETS OF LINEAR EQUATIONS FOR LINEAR RESPONSE PROPERTIES ---

 Operator symmetry = 3  ( B2u); triplet =   F

RSPORT:    1 out of    9 new trial vectors linear dependent

 ** RSPCTL MICROITERATION NUMBER    1

       No.  Residual tot.,    conf., and orb.    Bnorm      Frequency 
      ----------------------------------------------------------------
         1    8.30879D-01  0.00D+00  8.31D-01  2.34D+00    0.00000D+00
         2    8.31364D-01  0.00D+00  8.31D-01  2.35D+00    1.82502D-02
         3    8.32826D-01  0.00D+00  8.33D-01  2.36D+00    3.65004D-02
         4    8.35280D-01  0.00D+00  8.35D-01  2.37D+00    5.47506D-02
         5    8.38754D-01  0.00D+00  8.39D-01  2.40D+00    7.30008D-02
         6    8.43289D-01  0.00D+00  8.43D-01  2.43D+00    9.12509D-02
         7    8.48938D-01  0.00D+00  8.49D-01  2.46D+00    1.09501D-01
         8    8.55769D-01  0.00D+00  8.56D-01  2.51D+00    1.27751D-01
         9    8.63871D-01  0.00D+00  8.64D-01  2.56D+00    1.46002D-01

 ** RSPCTL MICROITERATION NUMBER    2

       No.  Residual tot.,    conf., and orb.    Bnorm      Frequency 
      ----------------------------------------------------------------
         1    5.67229D-02  0.00D+00  5.67D-02  2.40D+00    0.00000D+00
         2    5.67487D-02  0.00D+00  5.67D-02  2.40D+00    1.82502D-02
         3    5.68264D-02  0.00D+00  5.68D-02  2.41D+00    3.65004D-02
         4    5.69574D-02  0.00D+00  5.70D-02  2.43D+00    5.47506D-02
         5    5.71441D-02  0.00D+00  5.71D-02  2.45D+00    7.30008D-02
         6    5.73901D-02  0.00D+00  5.74D-02  2.48D+00    9.12509D-02
         7    5.77008D-02  0.00D+00  5.77D-02  2.52D+00    1.09501D-01
         8    5.80837D-02  0.00D+00  5.81D-02  2.57D+00    1.27751D-01
         9    5.85494D-02  0.00D+00  5.85D-02  2.62D+00    1.46002D-01

 ** RSPCTL MICROITERATION NUMBER    3

       No.  Residual tot.,    conf., and orb.    Bnorm      Frequency 
      ----------------------------------------------------------------
         1    3.71560D-03  0.00D+00  3.72D-03  2.40D+00    0.00000D+00
         2    3.71667D-03  0.00D+00  3.72D-03  2.40D+00    1.82502D-02
         3    3.71992D-03  0.00D+00  3.72D-03  2.41D+00    3.65004D-02
         4    3.72554D-03  0.00D+00  3.73D-03  2.43D+00    5.47506D-02
         5    3.73383D-03  0.00D+00  3.73D-03  2.45D+00    7.30008D-02
         6    3.74536D-03  0.00D+00  3.75D-03  2.48D+00    9.12509D-02
         7    3.76106D-03  0.00D+00  3.76D-03  2.52D+00    1.09501D-01
         8    3.78243D-03  0.00D+00  3.78D-03  2.57D+00    1.27751D-01
         9    3.81191D-03  0.00D+00  3.81D-03  2.62D+00    1.46002D-01

 ** RSPCTL MICROITERATION NUMBER    4

       No.  Residual tot.,    conf., and orb.    Bnorm      Frequency 
      ----------------------------------------------------------------
         1    2.36945D-04  0.00D+00  2.37D-04  2.40D+00    0.00000D+00
         2    2.37023D-04  0.00D+00  2.37D-04  2.40D+00    1.82502D-02
         3    2.37252D-04  0.00D+00  2.37D-04  2.41D+00    3.65004D-02
         4    2.37627D-04  0.00D+00  2.38D-04  2.43D+00    5.47506D-02
         5    2.38142D-04  0.00D+00  2.38D-04  2.45D+00    7.30008D-02
         6    2.38789D-04  0.00D+00  2.39D-04  2.48D+00    9.12509D-02
         7    2.39574D-04  0.00D+00  2.40D-04  2.52D+00    1.09501D-01
         8    2.40522D-04  0.00D+00  2.41D-04  2.57D+00    1.27751D-01
         9    2.41706D-04  0.00D+00  2.42D-04  2.62D+00    1.46002D-01

 *** THE REQUESTED    9 SOLUTION VECTORS CONVERGED

 Convergence of RSP solution vectors, threshold = 1.00D-03
 ---------------------------------------------------------------
 (dimension of paired reduced space:   70)
 RSP solution vector no.    1; norm of residual   9.88D-05
 RSP solution vector no.    2; norm of residual   9.87D-05
 RSP solution vector no.    3; norm of residual   9.84D-05
 RSP solution vector no.    4; norm of residual   9.79D-05
 RSP solution vector no.    5; norm of residual   9.72D-05
 RSP solution vector no.    6; norm of residual   9.62D-05
 RSP solution vector no.    7; norm of residual   9.50D-05
 RSP solution vector no.    8; norm of residual   9.37D-05
 RSP solution vector no.    9; norm of residual   9.21D-05

 *** RSPCTL MICROITERATIONS CONVERGED


           Final output of second order properties from linear response
           ------------------------------------------------------------


@ Spin symmetry of operators: singlet

 Note that minus the linear response function: - << A; B >>(omega) is printed.
 The results are of quadratic accuracy using Sellers formula.

@ FREQUENCY INDEPENDENT SECOND ORDER PROPERTIES

@ -<< YDIPLEN  ; YDIPLEN  >> =  9.833628524577E+00

@ FREQUENCY DEPENDENT SECOND ORDER PROPERTIES WITH FREQUENCY :

@    a.u.:  1.8250188D-02
@    cm-1:  4.0054531D+03
@    eV  :  4.9661286D-01
@  kJ/mol:  4.7915860D+01
@    nm  :  2.4965964D+03

@ -<< YDIPLEN  ; YDIPLEN  >> =  9.840432567183E+00

@ FREQUENCY DEPENDENT SECOND ORDER PROPERTIES WITH FREQUENCY :

@    a.u.:  3.6500375D-02
@    cm-1:  8.0109063D+03
@    eV  :  9.9322573D-01
@  kJ/mol:  9.5831720D+01
@    nm  :  1.2482982D+03

@ -<< YDIPLEN  ; YDIPLEN  >> =  9.860919104181E+00

@ FREQUENCY DEPENDENT SECOND ORDER PROPERTIES WITH FREQUENCY :

@    a.u.:  5.4750563D-02
@    cm-1:  1.2016359D+04
@    eV  :  1.4898386D+00
@  kJ/mol:  1.4374758D+02
@    nm  :  8.3219881D+02

@ -<< YDIPLEN  ; YDIPLEN  >> =  9.895313690142E+00

@ FREQUENCY DEPENDENT SECOND ORDER PROPERTIES WITH FREQUENCY :

@    a.u.:  7.3000750D-02
@    cm-1:  1.6021813D+04
@    eV  :  1.9864515D+00
@  kJ/mol:  1.9166344D+02
@    nm  :  6.2414911D+02

@ -<< YDIPLEN  ; YDIPLEN  >> =  9.944000154105E+00

@ FREQUENCY DEPENDENT SECOND ORDER PROPERTIES WITH FREQUENCY :

@    a.u.:  9.1250938D-02
@    cm-1:  2.0027266D+04
@    eV  :  2.4830643D+00
@  kJ/mol:  2.3957930D+02
@    nm  :  4.9931929D+02

@ -<< YDIPLEN  ; YDIPLEN  >> =  1.000753299060E+01

@ FREQUENCY DEPENDENT SECOND ORDER PROPERTIES WITH FREQUENCY :

@    a.u.:  1.0950113D-01
@    cm-1:  2.4032719D+04
@    eV  :  2.9796772D+00
@  kJ/mol:  2.8749516D+02
@    nm  :  4.1609940D+02

@ -<< YDIPLEN  ; YDIPLEN  >> =  1.008665583549E+01

@ FREQUENCY DEPENDENT SECOND ORDER PROPERTIES WITH FREQUENCY :

@    a.u.:  1.2775131D-01
@    cm-1:  2.8038172D+04
@    eV  :  3.4762900D+00
@  kJ/mol:  3.3541102D+02
@    nm  :  3.5665663D+02

@ -<< YDIPLEN  ; YDIPLEN  >> =  1.018232730702E+01

@ FREQUENCY DEPENDENT SECOND ORDER PROPERTIES WITH FREQUENCY :

@    a.u.:  1.4600150D-01
@    cm-1:  3.2043625D+04
@    eV  :  3.9729029D+00
@  kJ/mol:  3.8332688D+02
@    nm  :  3.1207455D+02

@ -<< YDIPLEN  ; YDIPLEN  >> =  1.029575610471E+01


 Time used in linear response calculation is      4.16 CPU seconds for symmetry 3
 ----------------------------------------------------------------
 ----- Linear response calculation
 ----- Symmetry of excitation/property operator(s)    5  ( B1u)
 ----------------------------------------------------------------

 Number of excitations of this symmetry            0
 Number of response properties of this symmetry    1
 Number of C6/C8 properties of this symmetry       0


 Perturbation symmetry.     KSYMOP:           5
 Perturbation spin symmetry.TRPLET:           F
 Orbital variables.         KZWOPT:         181
 Configuration variables.   KZCONF:           0
 Total number of variables. KZVAR :         181


 RSPLR -- linear response calculation for symmetry 5  ( B1u)
 RSPLR -- operator label : ZDIPLEN 
 RSPLR -- operator spin  :   0
 RSPLR -- frequencies    :     0.000000  0.018250  0.036500  0.054751  0.073001
                               0.091251  0.109501  0.127751  0.146002



 ---  SOLVING SETS OF LINEAR EQUATIONS FOR LINEAR RESPONSE PROPERTIES ---

 Operator symmetry = 5  ( B1u); triplet =   F

RSPORT:    1 out of    9 new trial vectors linear dependent

 ** RSPCTL MICROITERATION NUMBER    1

       No.  Residual tot.,    conf., and orb.    Bnorm      Frequency 
      ----------------------------------------------------------------
         1    3.10136D+00  0.00D+00  3.10D+00  2.44D+00    0.00000D+00
         2    3.10370D+00  0.00D+00  3.10D+00  2.44D+00    1.82502D-02
         3    3.11073D+00  0.00D+00  3.11D+00  2.45D+00    3.65004D-02
         4    3.12254D+00  0.00D+00  3.12D+00  2.47D+00    5.47506D-02
         5    3.13925D+00  0.00D+00  3.14D+00  2.50D+00    7.30008D-02
         6    3.16104D+00  0.00D+00  3.16D+00  2.54D+00    9.12509D-02
         7    3.18817D+00  0.00D+00  3.19D+00  2.59D+00    1.09501D-01
         8    3.22095D+00  0.00D+00  3.22D+00  2.64D+00    1.27751D-01
         9    3.25977D+00  0.00D+00  3.26D+00  2.71D+00    1.46002D-01

 ** RSPCTL MICROITERATION NUMBER    2

       No.  Residual tot.,    conf., and orb.    Bnorm      Frequency 
      ----------------------------------------------------------------
         1    3.80282D-01  0.00D+00  3.80D-01  3.12D+00    0.00000D+00
         2    3.80801D-01  0.00D+00  3.81D-01  3.12D+00    1.82502D-02
         3    3.82367D-01  0.00D+00  3.82D-01  3.14D+00    3.65004D-02
         4    3.85003D-01  0.00D+00  3.85D-01  3.17D+00    5.47506D-02
         5    3.88752D-01  0.00D+00  3.89D-01  3.21D+00    7.30008D-02
         6    3.93676D-01  0.00D+00  3.94D-01  3.27D+00    9.12509D-02
         7    3.99858D-01  0.00D+00  4.00D-01  3.34D+00    1.09501D-01
         8    4.07407D-01  0.00D+00  4.07D-01  3.42D+00    1.27751D-01
         9    4.16464D-01  0.00D+00  4.16D-01  3.52D+00    1.46002D-01

 ** RSPCTL MICROITERATION NUMBER    3

       No.  Residual tot.,    conf., and orb.    Bnorm      Frequency 
      ----------------------------------------------------------------
         1    3.05693D-02  0.00D+00  3.06D-02  3.13D+00    0.00000D+00
         2    3.06299D-02  0.00D+00  3.06D-02  3.13D+00    1.82502D-02
         3    3.08127D-02  0.00D+00  3.08D-02  3.15D+00    3.65004D-02
         4    3.11214D-02  0.00D+00  3.11D-02  3.18D+00    5.47506D-02
         5    3.15618D-02  0.00D+00  3.16D-02  3.22D+00    7.30008D-02
         6    3.21427D-02  0.00D+00  3.21D-02  3.28D+00    9.12509D-02
         7    3.28759D-02  0.00D+00  3.29D-02  3.35D+00    1.09501D-01
         8    3.37768D-02  0.00D+00  3.38D-02  3.43D+00    1.27751D-01
         9    3.48648D-02  0.00D+00  3.49D-02  3.53D+00    1.46002D-01

 ** RSPCTL MICROITERATION NUMBER    4

       No.  Residual tot.,    conf., and orb.    Bnorm      Frequency 
      ----------------------------------------------------------------
         1    1.74444D-03  0.00D+00  1.74D-03  3.13D+00    0.00000D+00
         2    1.74980D-03  0.00D+00  1.75D-03  3.13D+00    1.82502D-02
         3    1.76599D-03  0.00D+00  1.77D-03  3.15D+00    3.65004D-02
         4    1.79338D-03  0.00D+00  1.79D-03  3.18D+00    5.47506D-02
         5    1.83258D-03  0.00D+00  1.83D-03  3.22D+00    7.30008D-02
         6    1.88451D-03  0.00D+00  1.88D-03  3.28D+00    9.12509D-02
         7    1.95041D-03  0.00D+00  1.95D-03  3.35D+00    1.09501D-01
         8    2.03191D-03  0.00D+00  2.03D-03  3.43D+00    1.27751D-01
         9    2.13114D-03  0.00D+00  2.13D-03  3.53D+00    1.46002D-01

 *** THE REQUESTED    9 SOLUTION VECTORS CONVERGED

 Convergence of RSP solution vectors, threshold = 1.00D-03
 ---------------------------------------------------------------
 (dimension of paired reduced space:   70)
 RSP solution vector no.    1; norm of residual   5.58D-04
 RSP solution vector no.    2; norm of residual   5.58D-04
 RSP solution vector no.    3; norm of residual   5.60D-04
 RSP solution vector no.    4; norm of residual   5.64D-04
 RSP solution vector no.    5; norm of residual   5.69D-04
 RSP solution vector no.    6; norm of residual   5.75D-04
 RSP solution vector no.    7; norm of residual   5.82D-04
 RSP solution vector no.    8; norm of residual   5.92D-04
 RSP solution vector no.    9; norm of residual   6.03D-04

 *** RSPCTL MICROITERATIONS CONVERGED


           Final output of second order properties from linear response
           ------------------------------------------------------------


@ Spin symmetry of operators: singlet

 Note that minus the linear response function: - << A; B >>(omega) is printed.
 The results are of quadratic accuracy using Sellers formula.

@ FREQUENCY INDEPENDENT SECOND ORDER PROPERTIES

@ -<< ZDIPLEN  ; ZDIPLEN  >> =  1.503073587496E+01

@ FREQUENCY DEPENDENT SECOND ORDER PROPERTIES WITH FREQUENCY :

@    a.u.:  1.8250188D-02
@    cm-1:  4.0054531D+03
@    eV  :  4.9661286D-01
@  kJ/mol:  4.7915860D+01
@    nm  :  2.4965964D+03

@ -<< ZDIPLEN  ; ZDIPLEN  >> =  1.504467466272E+01

@ FREQUENCY DEPENDENT SECOND ORDER PROPERTIES WITH FREQUENCY :

@    a.u.:  3.6500375D-02
@    cm-1:  8.0109063D+03
@    eV  :  9.9322573D-01
@  kJ/mol:  9.5831720D+01
@    nm  :  1.2482982D+03

@ -<< ZDIPLEN  ; ZDIPLEN  >> =  1.508667942873E+01

@ FREQUENCY DEPENDENT SECOND ORDER PROPERTIES WITH FREQUENCY :

@    a.u.:  5.4750563D-02
@    cm-1:  1.2016359D+04
@    eV  :  1.4898386D+00
@  kJ/mol:  1.4374758D+02
@    nm  :  8.3219881D+02

@ -<< ZDIPLEN  ; ZDIPLEN  >> =  1.515732221724E+01

@ FREQUENCY DEPENDENT SECOND ORDER PROPERTIES WITH FREQUENCY :

@    a.u.:  7.3000750D-02
@    cm-1:  1.6021813D+04
@    eV  :  1.9864515D+00
@  kJ/mol:  1.9166344D+02
@    nm  :  6.2414911D+02

@ -<< ZDIPLEN  ; ZDIPLEN  >> =  1.525757970131E+01

@ FREQUENCY DEPENDENT SECOND ORDER PROPERTIES WITH FREQUENCY :

@    a.u.:  9.1250938D-02
@    cm-1:  2.0027266D+04
@    eV  :  2.4830643D+00
@  kJ/mol:  2.3957930D+02
@    nm  :  4.9931929D+02

@ -<< ZDIPLEN  ; ZDIPLEN  >> =  1.538886981447E+01

@ FREQUENCY DEPENDENT SECOND ORDER PROPERTIES WITH FREQUENCY :

@    a.u.:  1.0950113D-01
@    cm-1:  2.4032719D+04
@    eV  :  2.9796772D+00
@  kJ/mol:  2.8749516D+02
@    nm  :  4.1609940D+02

@ -<< ZDIPLEN  ; ZDIPLEN  >> =  1.555310670910E+01

@ FREQUENCY DEPENDENT SECOND ORDER PROPERTIES WITH FREQUENCY :

@    a.u.:  1.2775131D-01
@    cm-1:  2.8038172D+04
@    eV  :  3.4762900D+00
@  kJ/mol:  3.3541102D+02
@    nm  :  3.5665663D+02

@ -<< ZDIPLEN  ; ZDIPLEN  >> =  1.575277823894E+01

@ FREQUENCY DEPENDENT SECOND ORDER PROPERTIES WITH FREQUENCY :

@    a.u.:  1.4600150D-01
@    cm-1:  3.2043625D+04
@    eV  :  3.9729029D+00
@  kJ/mol:  3.8332688D+02
@    nm  :  3.1207455D+02

@ -<< ZDIPLEN  ; ZDIPLEN  >> =  1.599105221657E+01


 Time used in linear response calculation is      4.15 CPU seconds for symmetry 5

  Total CPU  time used in RESPONSE:  12.46 seconds
  Total wall time used in RESPONSE:  12.48 seconds


                   .-------------------------------------------.
                   | End of Dynamic Property Section (RESPONS) |
                   `-------------------------------------------'

  Total CPU  time used in DALTON:  16.68 seconds
  Total wall time used in DALTON:  16.71 seconds

 
     Date and time (Linux)  : Wed Jan 11 14:15:48 2023
     Host name              : cn020                                   
