

     ************************************************************************
     *************** Dalton - An Electronic Structure Program ***************
     ************************************************************************

    This is output from DALTON release Dalton2020.0 (2020)
         ( Web site: http://daltonprogram.org )

   ----------------------------------------------------------------------------

    NOTE:
     
    Dalton is an experimental code for the evaluation of molecular
    properties using (MC)SCF, DFT, CI, and CC wave functions.
    The authors accept no responsibility for the performance of
    the code or for the correctness of the results.
     
    The code (in whole or part) is provided under a licence and
    is not to be reproduced for further distribution without
    the written permission of the authors or their representatives.
     
    See the home page "http://daltonprogram.org" for further information.
     
    If results obtained with this code are published,
    the appropriate citations would be both of:
     
       K. Aidas, C. Angeli, K. L. Bak, V. Bakken, R. Bast,
       L. Boman, O. Christiansen, R. Cimiraglia, S. Coriani,
       P. Dahle, E. K. Dalskov, U. Ekstroem,
       T. Enevoldsen, J. J. Eriksen, P. Ettenhuber, B. Fernandez,
       L. Ferrighi, H. Fliegl, L. Frediani, K. Hald, A. Halkier,
       C. Haettig, H. Heiberg, T. Helgaker, A. C. Hennum,
       H. Hettema, E. Hjertenaes, S. Hoest, I.-M. Hoeyvik,
       M. F. Iozzi, B. Jansik, H. J. Aa. Jensen, D. Jonsson,
       P. Joergensen, J. Kauczor, S. Kirpekar,
       T. Kjaergaard, W. Klopper, S. Knecht, R. Kobayashi, H. Koch,
       J. Kongsted, A. Krapp, K. Kristensen, A. Ligabue,
       O. B. Lutnaes, J. I. Melo, K. V. Mikkelsen, R. H. Myhre,
       C. Neiss, C. B. Nielsen, P. Norman, J. Olsen,
       J. M. H. Olsen, A. Osted, M. J. Packer, F. Pawlowski,
       T. B. Pedersen, P. F. Provasi, S. Reine, Z. Rinkevicius,
       T. A. Ruden, K. Ruud, V. Rybkin, P. Salek, C. C. M. Samson,
       A. Sanchez de Meras, T. Saue, S. P. A. Sauer,
       B. Schimmelpfennig, K. Sneskov, A. H. Steindal,
       K. O. Sylvester-Hvid, P. R. Taylor, A. M. Teale,
       E. I. Tellgren, D. P. Tew, A. J. Thorvaldsen, L. Thoegersen,
       O. Vahtras, M. A. Watson, D. J. D. Wilson, M. Ziolkowski
       and H. Agren,
       "The Dalton quantum chemistry program system",
       WIREs Comput. Mol. Sci. 2014, 4:269–284 (doi: 10.1002/wcms.1172)
     
    and
     
       Dalton, a molecular electronic structure program,
       Release Dalton2020.0 (2020), see http://daltonprogram.org
   ----------------------------------------------------------------------------

    Authors in alphabetical order (Major contribution(s) in parenthesis):

  Kestutis Aidas,           Vilnius University,           Lithuania   (QM/MM)
  Celestino Angeli,         University of Ferrara,        Italy       (NEVPT2)
  Keld L. Bak,              UNI-C,                        Denmark     (AOSOPPA, non-adiabatic coupling, magnetic properties)
  Vebjoern Bakken,          University of Oslo,           Norway      (DALTON; geometry optimizer, symmetry detection)
  Radovan Bast,             UiT The Arctic U. of Norway,  Norway      (DALTON installation and execution frameworks)
  Pablo Baudin,             University of Valencia,       Spain       (Cholesky excitation energies)
  Linus Boman,              NTNU,                         Norway      (Cholesky decomposition and subsystems)
  Bruno N. Cabral Tenorio,  Technical Univ. of Denmark,   Denmark     (Lanczos-based CC methods)
  Ove Christiansen,         Aarhus University,            Denmark     (CC module)
  Renzo Cimiraglia,         University of Ferrara,        Italy       (NEVPT2)
  Sonia Coriani,            Technical Univ. of Denmark,   Denmark     (CC and RESPONS modules)
  Janusz Cukras,            University of Warsaw,         Poland      (MChD in RESPONS)
  Paal Dahle,               University of Oslo,           Norway      (Parallelization)
  Erik K. Dalskov,          UNI-C,                        Denmark     (SOPPA)
  Thomas Enevoldsen,        Univ. of Southern Denmark,    Denmark     (SOPPA)
  Janus J. Eriksen,         Aarhus University,            Denmark     (Polarizable embedding, TDA)
  Rasmus Faber,             Technical Univ. of Denmark,   Denmark     (Vib.avg. NMR w. SOPPA, parallel AO-SOPPA, CVS-CC and EOMCC)
  Tobias Fahleson,          KTH Stockholm,                Sweden      (Damped cubic response)
  Berta Fernandez,          U. of Santiago de Compostela, Spain       (Doublet spin, ESR in RESPONS)
  Lara Ferrighi,            Aarhus University,            Denmark     (PCM Cubic response)
  Heike Fliegl,             University of Oslo,           Norway      (CCSD(R12))
  Luca Frediani,            UiT The Arctic U. of Norway,  Norway      (PCM)
  Emmanuel Fromager,        Univ. Strasbourg,             France      (MC-srDFT)
  Bin Gao,                  UiT The Arctic U. of Norway,  Norway      (Gen1Int library)
  Andre S. P. Gomes,        CNRS/Universite de Lille,     France      (Frozen density embedding)
  Christof Haettig,         Ruhr-University Bochum,       Germany     (CC module)
  Kasper Hald,              Aarhus University,            Denmark     (CC module)
  Asger Halkier,            Aarhus University,            Denmark     (CC module)
  Frederik Beyer Hansen,    University of Copenhagen,     Denmark     (Parallel AO-SOPPA)
  Erik D. Hedegaard,        Univ. of Southern Denmark,    Denmark     (Polarizable embedding, QM/MM, and MC-srDFT)
  Hanne Heiberg,            University of Oslo,           Norway      (Geometry analysis, selected one-electron integrals)
  Trygve Helgaker,          University of Oslo,           Norway      (DALTON; ABACUS, ERI, DFT modules, London, and much more)
  Alf Christian Hennum,     University of Oslo,           Norway      (Parity violation)
  Hinne Hettema,            University of Auckland,       New Zealand (Quadratic response in RESPONS; SIRIUS supersymmetry)
  Eirik Hjertenaes,         NTNU,                         Norway      (Cholesky decomposition)
  Pi A. B. Haase,           University of Copenhagen,     Denmark     (Triplet AO-SOPPA)
  Maria Francesca Iozzi,    University of Oslo,           Norway      (RPA)
  Christoph Jacob           TU Braunschweig               Germany     (Frozen density embedding)
  Brano Jansik              Technical Univ. of Ostrava    Czech Rep.  (DFT cubic response)
  Hans Joergen Aa. Jensen,  Univ. of Southern Denmark,    Denmark     (DALTON; SIRIUS, RESPONS, ABACUS, MC-srDFT, and much more)
  Dan Jonsson,              UiT The Arctic U. of Norway,  Norway      (Cubic response in RESPONS module)
  Poul Joergensen,          Aarhus University,            Denmark     (RESPONS, ABACUS, and CC modules)
  Maciej Kaminski,          University of Warsaw,         Poland      (CPPh in RESPONS)
  Joanna Kauczor,           Linkoeping University,        Sweden      (Complex polarization propagator (CPP) module)
  Sheela Kirpekar,          Univ. of Southern Denmark,    Denmark     (Mass-velocity & Darwin integrals)
  Erik Kjellgren,           Univ. of Southern Denmark,    Denmark     (MC-srDFT)
  Wim Klopper,              KIT Karlsruhe,                Germany     (R12 code in CC, SIRIUS, and ABACUS modules)
  Stefan Knecht,            ETH Zurich,                   Switzerland (Parallel CI and MCSCF, MC-srDFT)
  Rika Kobayashi,           Australian National Univ.,    Australia   (DIIS in CC, London in MCSCF)
  Henrik Koch,              NTNU,                         Norway      (CC module, Cholesky decomposition)
  Jacob Kongsted,           Univ. of Southern Denmark,    Denmark     (Polarizable embedding, polarizable density embedding, QM/MM)
  Andrea Ligabue,           University of Modena,         Italy       (CTOCD, AOSOPPA)
  Nanna H. List             Univ. of Southern Denmark,    Denmark     (Polarizable embedding)
  Ola B. Lutnaes,           University of Oslo,           Norway      (DFT Hessian)
  Juan I. Melo,             University of Buenos Aires,   Argentina   (LRESC, Relativistic Effects on NMR Shieldings)
  Kurt V. Mikkelsen,        University of Copenhagen,     Denmark     (MC-SCRF and QM/MM)
  Rolf H. Myhre,            NTNU,                         Norway      (Subsystems and CC3)
  Christian Neiss,          Univ. Erlangen-Nuernberg,     Germany     (CCSD(R12))
  Christian B. Nielsen,     University of Copenhagen,     Denmark     (QM/MM)
  Patrick Norman,           KTH Stockholm,                Sweden      (Cubic response and complex frequency response in RESPONS)
  Jeppe Olsen,              Aarhus University,            Denmark     (SIRIUS CI/density modules)
  Jogvan Magnus H. Olsen,   Aarhus University,            Denmark     (Polarizable embedding and polarizable density embedding)
  Anders Osted,             Copenhagen University,        Denmark     (QM/MM)
  Martin J. Packer,         University of Sheffield,      UK          (SOPPA)
  Filip Pawlowski,          Kazimierz Wielki University,  Poland      (CC3)
  Morten N. Pedersen,       Univ. of Southern Denmark,    Denmark     (Polarizable embedding)
  Thomas B. Pedersen,       University of Oslo,           Norway      (Cholesky decomposition)
  Patricio F. Provasi,      University of Northeastern,   Argentina   (Analysis of coupling constants in localized orbitals)
  Peter Reinholdt,          Univ. of Southern Denmark,    Denmark     (Polarizable embedding and polarizable density embedding)
  Zilvinas Rinkevicius,     KTH Stockholm,                Sweden      (open-shell DFT, ESR)
  Elias Rudberg,            KTH Stockholm,                Sweden      (DFT grid and basis info)
  Torgeir A. Ruden,         University of Oslo,           Norway      (Numerical derivatives in ABACUS)
  Kenneth Ruud,             UiT The Arctic U. of Norway,  Norway      (DALTON; ABACUS magnetic properties and much more)
  Pawel Salek,              KTH Stockholm,                Sweden      (DALTON; DFT code)
  Claire C. M. Samson       University of Karlsruhe       Germany     (Boys localization, r12 integrals in ERI)
  Alfredo Sanchez de Meras, University of Valencia,       Spain       (CC module, Cholesky decomposition)
  Trond Saue,               Paul Sabatier University,     France      (direct Fock matrix construction)
  Stephan P. A. Sauer,      University of Copenhagen,     Denmark     (SOPPA(CCSD), SOPPA prop., AOSOPPA, vibrational g-factors)
  Bernd Schimmelpfennig,    Forschungszentrum Karlsruhe,  Germany     (AMFI module)
  Anna K. Schnack-Petersen, University of Copenhagen,     Denmark     (RPA(D) and HRPA(D) properties in AOSOPPA)
  Kristian Sneskov,         Aarhus University,            Denmark     (Polarizable embedding, QM/MM)
  Arnfinn H. Steindal,      UiT The Arctic U. of Norway,  Norway      (parallel QM/MM, polarizable embedding)
  Casper Steinmann,         Aalborg University,           Denmark     (QFIT, polarizable embedding)
  K. O. Sylvester-Hvid,     University of Copenhagen,     Denmark     (MC-SCRF)
  Peter R. Taylor,          VLSCI/Univ. of Melbourne,     Australia   (Symmetry handling ABACUS, integral transformation)
  Andrew M. Teale,          University of Nottingham,     England     (DFT-AC, DFT-D)
  David P. Tew,             University of Bristol,        England     (CCSD(R12))
  Julien Toulouse,          Sorbonne Univ.,               France      (MC-srDFT)
  Olav Vahtras,             KTH Stockholm,                Sweden      (Triplet response, spin-orbit, ESR, TDDFT, open-shell DFT)
  Lucas Visscher,           Vrije Universiteit Amsterdam, Netherlands (Frozen density embedding)
  David J. Wilson,          La Trobe University,          Australia   (DFT Hessian and DFT magnetizabilities)
  Hans Agren,               KTH Stockholm,                Sweden      (SIRIUS module, RESPONS, MC-SCRF solvation)
 --------------------------------------------------------------------------------

     Date and time (Linux)  : Wed Jan 11 14:15:51 2023
     Host name              : cn020                                   

 * Work memory size             :    64000000 =  488.28 megabytes.

 * Directories for basis set searches:
   1) /gpfs/projects/rjh/adrian/fd_compare/dalton/hf/N2/dipole
   2) /gpfs/projects/rjh/adrian/dalton/build/basis


Compilation information
-----------------------

 Who compiled             | ahurtado
 Host                     | sn-mem
 System                   | Linux-3.10.0-1160.24.1.el7.x86_64
 CMake generator          | Unix Makefiles
 Processor                | x86_64
 64-bit integers          | OFF
 MPI                      | ON
 Fortran compiler         | /gpfs/software/intel/oneAPI/2021_4/mpi/2021.4.0/bi
                          | n/mpif90
 Fortran compiler version | GNU Fortran (GCC) 11.2.0
 C compiler               | /gpfs/software/intel/oneAPI/2021_4/mpi/2021.4.0/bi
                          | n/mpicc
 C compiler version       | gcc (GCC) 11.2.0
 C++ compiler             | /gpfs/software/intel/oneAPI/2021_4/mpi/2021.4.0/bi
                          | n/mpicxx
 C++ compiler version     | unknown
 BLAS                     | /gpfs/software/intel/oneAPI/2021_4/mkl/2021.4.0/li
                          | b/intel64/libmkl_gf_lp64.so;/gpfs/software/intel/o
                          | neAPI/2021_4/mkl/2021.4.0/lib/intel64/libmkl_seque
                          | ntial.so;/gpfs/software/intel/oneAPI/2021_4/mkl/20
                          | 21.4.0/lib/intel64/libmkl_core.so;/usr/lib64/libpt
                          | hread.so;/usr/lib64/libm.so
 LAPACK                   | /gpfs/software/intel/oneAPI/2021_4/mkl/2021.4.0/li
                          | b/intel64/libmkl_lapack95_lp64.a;/gpfs/software/in
                          | tel/oneAPI/2021_4/mkl/2021.4.0/lib/intel64/libmkl_
                          | gf_lp64.so
 Static linking           | OFF
 Last Git revision        | 66052b3af5ea7225e31178bf9a8b031913c72190
 Git branch               | (HEAD detached at Dalton2020.0)
 Configuration time       | 2023-01-11 13:33:37.731835

 * MPI parallel run using 20 processes.


   Content of the .dal input file
 ----------------------------------

**DALTON INPUT
.RUN RESPONSE
.DIRECT
**WAVE FUNCTIONS
.HF
**RESPONSE
*LINEAR
.DIPLEN
.FREQUENCIES
9
0.0 0.0182501875 0.036500375 0.0547505625 0.07300075 0.0912509375 0.109501125 0.1277513125 0.1460015
**END OF DALTON INPUT


   Content of the .mol file
 ----------------------------

BASIS
aug-cc-pV5Z
blah
blah
Atomtype=1 Atomic
Charge=7 Atoms=2
N_a 0.000000000000 0.000000000000 0.000000000000
N_b 0.000000000000 0.000000000000 2.074320000000


       *******************************************************************
       *********** Output from DALTON general input processing ***********
       *******************************************************************

 --------------------------------------------------------------------------------
   Overall default print level:    0
   Print level for DALTON.STAT:    1

    Parallel calculation using MPI
    AO-direct calculation (in sections where implemented)
    HERMIT 1- and 2-electron integral sections will be executed
    "Old" integral transformation used (limited to max 255 basis functions)
    Wave function sections will be executed (SIRIUS module)
    Dynamic molecular response properties section will be executed (RESPONSE module)
 --------------------------------------------------------------------------------


   ****************************************************************************
   *************** Output of molecule and basis set information ***************
   ****************************************************************************


    The two title cards from your ".mol" input:
    ------------------------------------------------------------------------
 1: blah                                                                    
 2: blah                                                                    
    ------------------------------------------------------------------------

  Atomic type no.    1
  --------------------
  Nuclear charge:   7.00000
  Number of symmetry independent centers:    2
  Number of basis sets to read;    2
  Basis set file used for this atomic type with Z =   7 :
     "/gpfs/projects/rjh/adrian/dalton/build/basis/aug-cc-pV5Z"


                      SYMADD: Requested addition of symmetry
                      --------------------------------------

 Symmetry test threshold:  5.00E-06

@   The molecule is centered at center of mass and rotated
@   so principal axes of inertia are along coordinate axes.

 Symmetry class found: D(oo,h)        

 Symmetry Independent Centres             
 ----------------------------
N_b    7 :      0.00000000     0.00000000     1.03716000  Isotope  1

 The following symmetry elements were found:   X  Y  Z  


                         SYMGRP: Point group information
                         -------------------------------

@    Full point group is: D(oo,h)        
@    Represented as:      D2h

@  * The irrep name for each symmetry:    1: Ag     2: B3u    3: B2u    4: B1g    5: B1u    6: B2g    7: B3g    8: Au 


   * The point group was generated by:

      Reflection in the yz-plane
      Reflection in the xz-plane
      Reflection in the xy-plane

   * Group multiplication table

        |  E   C2z  C2y  C2x   i   Oxy  Oxz  Oyz
   -----+----------------------------------------
     E  |  E   C2z  C2y  C2x   i   Oxy  Oxz  Oyz
    C2z | C2z   E   C2x  C2y  Oxy   i   Oyz  Oxz
    C2y | C2y  C2x   E   C2z  Oxz  Oyz   i   Oxy
    C2x | C2x  C2y  C2z   E   Oyz  Oxz  Oxy   i 
     i  |  i   Oxy  Oxz  Oyz   E   C2z  C2y  C2x
    Oxy | Oxy   i   Oyz  Oxz  C2z   E   C2x  C2y
    Oxz | Oxz  Oyz   i   Oxy  C2y  C2x   E   C2z
    Oyz | Oyz  Oxz  Oxy   i   C2x  C2y  C2z   E 

   * Character table

        |  E   C2z  C2y  C2x   i   Oxy  Oxz  Oyz
   -----+----------------------------------------
    Ag  |   1    1    1    1    1    1    1    1
    B3u |   1   -1   -1    1   -1    1    1   -1
    B2u |   1   -1    1   -1   -1    1   -1    1
    B1g |   1    1   -1   -1    1    1   -1   -1
    B1u |   1    1   -1   -1   -1   -1    1    1
    B2g |   1   -1    1   -1    1   -1    1   -1
    B3g |   1   -1   -1    1    1   -1   -1    1
    Au  |   1    1    1    1   -1   -1   -1   -1

   * Direct product table

        | Ag   B3u  B2u  B1g  B1u  B2g  B3g  Au 
   -----+----------------------------------------
    Ag  | Ag   B3u  B2u  B1g  B1u  B2g  B3g  Au 
    B3u | B3u  Ag   B1g  B2u  B2g  B1u  Au   B3g
    B2u | B2u  B1g  Ag   B3u  B3g  Au   B1u  B2g
    B1g | B1g  B2u  B3u  Ag   Au   B3g  B2g  B1u
    B1u | B1u  B2g  B3g  Au   Ag   B3u  B2u  B1g
    B2g | B2g  B1u  Au   B3g  B3u  Ag   B1g  B2u
    B3g | B3g  Au   B1u  B2g  B2u  B1g  Ag   B3u
    Au  | Au   B3g  B2g  B1u  B1g  B2u  B3u  Ag 


                                 Isotopic Masses
                                 ---------------

                           N_b _1     14.003074
                           N_b _2     14.003074

                       Total mass:    28.006148 amu
                       Natural abundance:  99.261 %

 Center-of-mass coordinates (a.u.):    0.000000    0.000000    0.000000
 Center-of-mass coordinates (Angs):    0.000000    0.000000    0.000000


  Atoms and basis sets
  --------------------

  Number of atom types :    1
  Total number of atoms:    2

  Basis set used is "aug-cc-pV5Z" from the basis set library.

  label    atoms   charge   prim   cont     basis
  ----------------------------------------------------------------------
  N_          2    7.0000   144   127      [15s9p5d4f3g2h|7s6p5d4f3g2h]                       
  ----------------------------------------------------------------------
  total:      2   14.0000   288   254
  ----------------------------------------------------------------------
  Spherical harmonic basis used.

  Threshold for neglecting AO integrals:  1.00D-12


  Cartesian Coordinates (a.u.)
  ----------------------------

  Total number of coordinates:    6
  N_b / 1 :     1  x   0.0000000000    2  y   0.0000000000    3  z   1.0371600000
  N_b / 2 :     4  x   0.0000000000    5  y   0.0000000000    6  z  -1.0371600000


  Symmetry Coordinates
  --------------------

  Number of coordinates in each symmetry:     1    1    1    0    1    1    1    0

  Symmetry  Ag  ( 1)

    1   N_b   z    [  3  -    6 ]/2

  Symmetry  B3u ( 2)

    2   N_b   x    [  1  +    4 ]/2

  Symmetry  B2u ( 3)

    3   N_b   y    [  2  +    5 ]/2

  Symmetry  B1u ( 5)

    4   N_b   z    [  3  +    6 ]/2

  Symmetry  B2g ( 6)

    5   N_b   x    [  1  -    4 ]/2

  Symmetry  B3g ( 7)

    6   N_b   y    [  2  -    5 ]/2


   Interatomic separations (in Angstrom):
   --------------------------------------

            N_b _1      N_b _2
            ------      ------
 N_b _1:    0.000000
 N_b _2:    1.097683    0.000000


  Max    interatomic separation is    1.0977 Angstrom (    2.0743 Bohr)
  between atoms    2 and    1, "N_b _2" and "N_b _1".

  Min YX interatomic separation is    1.0977 Angstrom (    2.0743 Bohr)


  Bond distances (Angstrom):
  --------------------------

                  atom 1     atom 2       distance
                  ------     ------       --------
  bond distance:  N_b _2     N_b _1       1.097683




 Principal moments of inertia (u*A**2) and principal axes
 --------------------------------------------------------

   IA       0.000000          0.000000    0.000000    1.000000
   IB       8.436206          0.000000    1.000000    0.000000
   IC       8.436206          1.000000    0.000000    0.000000


 Rotational constants
 --------------------

@    The molecule is linear.

               B =        59905.96 MHz     (    1.998248 cm-1)


@  Nuclear repulsion energy :   23.622199082109 Hartree


  Symmetry Orbitals
  -----------------

  Number of orbitals in each symmetry:          46   31   31   19   46   31   31   19


  Symmetry  Ag ( 1)

    1     N_b      1s         1 +    2
    2     N_b      1s         3 +    4
    3     N_b      1s         5 +    6
    4     N_b      1s         7 +    8
    5     N_b      1s         9 +   10
    6     N_b      1s        11 +   12
    7     N_b      1s        13 +   14
    8     N_b      2pz       19 -   20
    9     N_b      2pz       25 -   26
   10     N_b      2pz       31 -   32
   11     N_b      2pz       37 -   38
   12     N_b      2pz       43 -   44
   13     N_b      2pz       49 -   50
   14     N_b      3d0       55 +   56
   15     N_b      3d2+      59 +   60
   16     N_b      3d0       65 +   66
   17     N_b      3d2+      69 +   70
   18     N_b      3d0       75 +   76
   19     N_b      3d2+      79 +   80
   20     N_b      3d0       85 +   86
   21     N_b      3d2+      89 +   90
   22     N_b      3d0       95 +   96
   23     N_b      3d2+      99 +  100
   24     N_b      4f0      107 -  108
   25     N_b      4f2+     111 -  112
   26     N_b      4f0      121 -  122
   27     N_b      4f2+     125 -  126
   28     N_b      4f0      135 -  136
   29     N_b      4f2+     139 -  140
   30     N_b      4f0      149 -  150
   31     N_b      4f2+     153 -  154
   32     N_b      5g0      165 +  166
   33     N_b      5g2+     169 +  170
   34     N_b      5g4+     173 +  174
   35     N_b      5g0      183 +  184
   36     N_b      5g2+     187 +  188
   37     N_b      5g4+     191 +  192
   38     N_b      5g0      201 +  202
   39     N_b      5g2+     205 +  206
   40     N_b      5g4+     209 +  210
   41     N_b      6h0      221 -  222
   42     N_b      6h2+     225 -  226
   43     N_b      6h4+     229 -  230
   44     N_b      6h0      243 -  244
   45     N_b      6h2+     247 -  248
   46     N_b      6h4+     251 -  252


  Symmetry  B3u( 2)

   47     N_b      2px       15 +   16
   48     N_b      2px       21 +   22
   49     N_b      2px       27 +   28
   50     N_b      2px       33 +   34
   51     N_b      2px       39 +   40
   52     N_b      2px       45 +   46
   53     N_b      3d1+      57 -   58
   54     N_b      3d1+      67 -   68
   55     N_b      3d1+      77 -   78
   56     N_b      3d1+      87 -   88
   57     N_b      3d1+      97 -   98
   58     N_b      4f1+     109 +  110
   59     N_b      4f3+     113 +  114
   60     N_b      4f1+     123 +  124
   61     N_b      4f3+     127 +  128
   62     N_b      4f1+     137 +  138
   63     N_b      4f3+     141 +  142
   64     N_b      4f1+     151 +  152
   65     N_b      4f3+     155 +  156
   66     N_b      5g1+     167 -  168
   67     N_b      5g3+     171 -  172
   68     N_b      5g1+     185 -  186
   69     N_b      5g3+     189 -  190
   70     N_b      5g1+     203 -  204
   71     N_b      5g3+     207 -  208
   72     N_b      6h1+     223 +  224
   73     N_b      6h3+     227 +  228
   74     N_b      6h5+     231 +  232
   75     N_b      6h1+     245 +  246
   76     N_b      6h3+     249 +  250
   77     N_b      6h5+     253 +  254


  Symmetry  B2u( 3)

   78     N_b      2py       17 +   18
   79     N_b      2py       23 +   24
   80     N_b      2py       29 +   30
   81     N_b      2py       35 +   36
   82     N_b      2py       41 +   42
   83     N_b      2py       47 +   48
   84     N_b      3d1-      53 -   54
   85     N_b      3d1-      63 -   64
   86     N_b      3d1-      73 -   74
   87     N_b      3d1-      83 -   84
   88     N_b      3d1-      93 -   94
   89     N_b      4f3-     101 +  102
   90     N_b      4f1-     105 +  106
   91     N_b      4f3-     115 +  116
   92     N_b      4f1-     119 +  120
   93     N_b      4f3-     129 +  130
   94     N_b      4f1-     133 +  134
   95     N_b      4f3-     143 +  144
   96     N_b      4f1-     147 +  148
   97     N_b      5g3-     159 -  160
   98     N_b      5g1-     163 -  164
   99     N_b      5g3-     177 -  178
  100     N_b      5g1-     181 -  182
  101     N_b      5g3-     195 -  196
  102     N_b      5g1-     199 -  200
  103     N_b      6h5-     211 +  212
  104     N_b      6h3-     215 +  216
  105     N_b      6h1-     219 +  220
  106     N_b      6h5-     233 +  234
  107     N_b      6h3-     237 +  238
  108     N_b      6h1-     241 +  242


  Symmetry  B1g( 4)

  109     N_b      3d2-      51 +   52
  110     N_b      3d2-      61 +   62
  111     N_b      3d2-      71 +   72
  112     N_b      3d2-      81 +   82
  113     N_b      3d2-      91 +   92
  114     N_b      4f2-     103 -  104
  115     N_b      4f2-     117 -  118
  116     N_b      4f2-     131 -  132
  117     N_b      4f2-     145 -  146
  118     N_b      5g4-     157 +  158
  119     N_b      5g2-     161 +  162
  120     N_b      5g4-     175 +  176
  121     N_b      5g2-     179 +  180
  122     N_b      5g4-     193 +  194
  123     N_b      5g2-     197 +  198
  124     N_b      6h4-     213 -  214
  125     N_b      6h2-     217 -  218
  126     N_b      6h4-     235 -  236
  127     N_b      6h2-     239 -  240


  Symmetry  B1u( 5)

  128     N_b      1s         1 -    2
  129     N_b      1s         3 -    4
  130     N_b      1s         5 -    6
  131     N_b      1s         7 -    8
  132     N_b      1s         9 -   10
  133     N_b      1s        11 -   12
  134     N_b      1s        13 -   14
  135     N_b      2pz       19 +   20
  136     N_b      2pz       25 +   26
  137     N_b      2pz       31 +   32
  138     N_b      2pz       37 +   38
  139     N_b      2pz       43 +   44
  140     N_b      2pz       49 +   50
  141     N_b      3d0       55 -   56
  142     N_b      3d2+      59 -   60
  143     N_b      3d0       65 -   66
  144     N_b      3d2+      69 -   70
  145     N_b      3d0       75 -   76
  146     N_b      3d2+      79 -   80
  147     N_b      3d0       85 -   86
  148     N_b      3d2+      89 -   90
  149     N_b      3d0       95 -   96
  150     N_b      3d2+      99 -  100
  151     N_b      4f0      107 +  108
  152     N_b      4f2+     111 +  112
  153     N_b      4f0      121 +  122
  154     N_b      4f2+     125 +  126
  155     N_b      4f0      135 +  136
  156     N_b      4f2+     139 +  140
  157     N_b      4f0      149 +  150
  158     N_b      4f2+     153 +  154
  159     N_b      5g0      165 -  166
  160     N_b      5g2+     169 -  170
  161     N_b      5g4+     173 -  174
  162     N_b      5g0      183 -  184
  163     N_b      5g2+     187 -  188
  164     N_b      5g4+     191 -  192
  165     N_b      5g0      201 -  202
  166     N_b      5g2+     205 -  206
  167     N_b      5g4+     209 -  210
  168     N_b      6h0      221 +  222
  169     N_b      6h2+     225 +  226
  170     N_b      6h4+     229 +  230
  171     N_b      6h0      243 +  244
  172     N_b      6h2+     247 +  248
  173     N_b      6h4+     251 +  252


  Symmetry  B2g( 6)

  174     N_b      2px       15 -   16
  175     N_b      2px       21 -   22
  176     N_b      2px       27 -   28
  177     N_b      2px       33 -   34
  178     N_b      2px       39 -   40
  179     N_b      2px       45 -   46
  180     N_b      3d1+      57 +   58
  181     N_b      3d1+      67 +   68
  182     N_b      3d1+      77 +   78
  183     N_b      3d1+      87 +   88
  184     N_b      3d1+      97 +   98
  185     N_b      4f1+     109 -  110
  186     N_b      4f3+     113 -  114
  187     N_b      4f1+     123 -  124
  188     N_b      4f3+     127 -  128
  189     N_b      4f1+     137 -  138
  190     N_b      4f3+     141 -  142
  191     N_b      4f1+     151 -  152
  192     N_b      4f3+     155 -  156
  193     N_b      5g1+     167 +  168
  194     N_b      5g3+     171 +  172
  195     N_b      5g1+     185 +  186
  196     N_b      5g3+     189 +  190
  197     N_b      5g1+     203 +  204
  198     N_b      5g3+     207 +  208
  199     N_b      6h1+     223 -  224
  200     N_b      6h3+     227 -  228
  201     N_b      6h5+     231 -  232
  202     N_b      6h1+     245 -  246
  203     N_b      6h3+     249 -  250
  204     N_b      6h5+     253 -  254


  Symmetry  B3g( 7)

  205     N_b      2py       17 -   18
  206     N_b      2py       23 -   24
  207     N_b      2py       29 -   30
  208     N_b      2py       35 -   36
  209     N_b      2py       41 -   42
  210     N_b      2py       47 -   48
  211     N_b      3d1-      53 +   54
  212     N_b      3d1-      63 +   64
  213     N_b      3d1-      73 +   74
  214     N_b      3d1-      83 +   84
  215     N_b      3d1-      93 +   94
  216     N_b      4f3-     101 -  102
  217     N_b      4f1-     105 -  106
  218     N_b      4f3-     115 -  116
  219     N_b      4f1-     119 -  120
  220     N_b      4f3-     129 -  130
  221     N_b      4f1-     133 -  134
  222     N_b      4f3-     143 -  144
  223     N_b      4f1-     147 -  148
  224     N_b      5g3-     159 +  160
  225     N_b      5g1-     163 +  164
  226     N_b      5g3-     177 +  178
  227     N_b      5g1-     181 +  182
  228     N_b      5g3-     195 +  196
  229     N_b      5g1-     199 +  200
  230     N_b      6h5-     211 -  212
  231     N_b      6h3-     215 -  216
  232     N_b      6h1-     219 -  220
  233     N_b      6h5-     233 -  234
  234     N_b      6h3-     237 -  238
  235     N_b      6h1-     241 -  242


  Symmetry  Au ( 8)

  236     N_b      3d2-      51 -   52
  237     N_b      3d2-      61 -   62
  238     N_b      3d2-      71 -   72
  239     N_b      3d2-      81 -   82
  240     N_b      3d2-      91 -   92
  241     N_b      4f2-     103 +  104
  242     N_b      4f2-     117 +  118
  243     N_b      4f2-     131 +  132
  244     N_b      4f2-     145 +  146
  245     N_b      5g4-     157 -  158
  246     N_b      5g2-     161 -  162
  247     N_b      5g4-     175 -  176
  248     N_b      5g2-     179 -  180
  249     N_b      5g4-     193 -  194
  250     N_b      5g2-     197 -  198
  251     N_b      6h4-     213 +  214
  252     N_b      6h2-     217 +  218
  253     N_b      6h4-     235 +  236
  254     N_b      6h2-     239 +  240

  Symmetries of electric field:  B3u(2)  B2u(3)  B1u(5)

  Symmetries of magnetic field:  B3g(7)  B2g(6)  B1g(4)


                     .---------------------------------------.
                     | Starting in Integral Section (HERMIT) |
                     `---------------------------------------'



 ***************************************************************************************
 ****************** Output from **INTEGRALS input processing (HERMIT) ******************
 ***************************************************************************************


 - Using defaults, no **INTEGRALS input found

 Default print level:        1

 Calculation of one-electron Hamiltonian integrals.

 Center of mass  (bohr):      0.000000000000      0.000000000000      0.000000000000
 Operator center (bohr):      0.000000000000      0.000000000000      0.000000000000
 Gauge origin    (bohr):      0.000000000000      0.000000000000      0.000000000000
 Dipole origin   (bohr):      0.000000000000      0.000000000000      0.000000000000


     ************************************************************************
     ************************** Output from HERINT **************************
     ************************************************************************



                      Nuclear contribution to dipole moments
                      --------------------------------------

                    All dipole components are zero by symmetry


  Time used in GABGEN     is       0.52 seconds
  Total CPU  time used in HERMIT:   0.69 seconds
  Total wall time used in HERMIT:   0.70 seconds


                        .----------------------------------.
                        | End of Integral Section (HERMIT) |
                        `----------------------------------'



                   .--------------------------------------------.
                   | Starting in Wave Function Section (SIRIUS) |
                   `--------------------------------------------'


 *** Output from Huckel module :

     Using EWMO model:          F
     Using EHT  model:          T
     Number of Huckel orbitals each symmetry:    3    1    1    0    3    1    1    0

 Huckel EHT eigenvalues for symmetry :  1
          -15.703205      -1.363953      -0.476809

 Huckel EHT eigenvalues for symmetry :  2
           -0.648566

 Huckel EHT eigenvalues for symmetry :  3
           -0.648566

 Huckel EHT eigenvalues for symmetry :  5
          -15.694742      -0.814285      -0.224605

 Huckel EHT eigenvalues for symmetry :  6
           -0.368834

 Huckel EHT eigenvalues for symmetry :  7
           -0.368834

 **********************************************************************
 *SIRIUS* a direct, restricted step, second order MCSCF program       *
 **********************************************************************

 
     Date and time (Linux)  : Wed Jan 11 14:15:51 2023
     Host name              : cn020                                   

 Title lines from ".mol" input file:
     blah                                                                    
     blah                                                                    

 Print level on unit LUPRI =   2 is   0
 Print level on unit LUW4  =   2 is   5

@    Restricted, closed shell Hartree-Fock calculation.

@    Time-dependent Hartree-Fock calculation (random phase approximation).
 Fock matrices are calculated directly and in parallel without use of integrals on disk.

 Initial molecular orbitals are obtained according to
 ".MOSTART EHT   " input option

     Wave function specification
     ============================
@    Wave function type        --- HF ---
@    Number of closed shell electrons          14
@    Number of electrons in active shells       0
@    Total charge of the molecule               0

@    Spin multiplicity and 2 M_S                1         0
@    Total number of symmetries                 8 (point group: D2h)
@    Reference state symmetry                   1 (irrep name : Ag )

     Orbital specifications
     ======================
@    Abelian symmetry species          All |    1    2    3    4    5    6    7    8
@                                          |  Ag   B3u  B2u  B1g  B1u  B2g  B3g  Au 
                                       --- |  ---  ---  ---  ---  ---  ---  ---  ---
@    Total number of orbitals          254 |   46   31   31   19   46   31   31   19
@    Number of basis functions         254 |   46   31   31   19   46   31   31   19

      ** Automatic occupation of RHF orbitals **

      -- Initial occupation of symmetries is determined from extended Huckel guess.           
      -- Initial occupation of symmetries is :
@    Occupied SCF orbitals               7 |    3    1    1    0    2    0    0    0

     Maximum number of Fock   iterations      0
     Maximum number of DIIS   iterations     60
     Maximum number of QC-SCF iterations     60
     Threshold for SCF convergence     1.00D-05


 ***********************************************
 ***** DIIS acceleration of SCF iterations *****
 ***********************************************

 C1-DIIS algorithm; max error vectors =    8

 Automatic occupation of symmetries with  14 electrons.

 Iter     Total energy    Error norm  Delta(E)    SCF occupation
 -----------------------------------------------------------------------------
   1  Screening settings (-IFTHRS, JTDIIS, DIFDEN, times)   -7    1    T  3.38D+00  3.38D+00
@  1  -108.652000354       3.12D+00  -1.09D+02     3   1   1   0   2   0   0   0
      Virial theorem: -V/T =      2.009471
@    MULPOP   N_b _1  0.00; N_b _2  0.00; 
   1  Level shift: doubly occupied orbital energies shifted by -2.00D-01
 -----------------------------------------------------------------------------
   2  Screening settings (-IFTHRS, JTDIIS, DIFDEN, times)   -7    2    T  3.37D+00  3.37D+00
@  2  -108.976852923       6.29D-01  -3.25D-01     3   1   1   0   2   0   0   0
      Virial theorem: -V/T =      1.996084
@    MULPOP   N_b _1  0.00; N_b _2  0.00; 
   2  Level shift: doubly occupied orbital energies shifted by -5.00D-02
 -----------------------------------------------------------------------------
   3  Screening settings (-IFTHRS, JTDIIS, DIFDEN, times)  -11    3    F  3.39D+00  3.39D+00
@  3  -108.991719053       1.18D-01  -1.49D-02     3   1   1   0   2   0   0   0
      Virial theorem: -V/T =      2.002480
@    MULPOP   N_b _1 -0.00; N_b _2 -0.00; 
   3  Level shift: doubly occupied orbital energies shifted by -1.25D-02
 -----------------------------------------------------------------------------
   4  Screening settings (-IFTHRS, JTDIIS, DIFDEN, times)  -11    4    T  3.51D+00  3.51D+00
@  4  -108.992885865       2.65D-02  -1.17D-03     3   1   1   0   2   0   0   0
      Virial theorem: -V/T =      2.001865
@    MULPOP   N_b _1  0.00; N_b _2  0.00; 
 -----------------------------------------------------------------------------
   5  Screening settings (-IFTHRS, JTDIIS, DIFDEN, times)  -11    5    T  3.41D+00  3.41D+00
@  5  -108.992956870       3.96D-03  -7.10D-05     3   1   1   0   2   0   0   0
      Virial theorem: -V/T =      2.002087
@    MULPOP   N_b _1 -0.00; N_b _2 -0.00; 
 -----------------------------------------------------------------------------
   6  Screening settings (-IFTHRS, JTDIIS, DIFDEN, times)  -11    6    T  3.42D+00  3.42D+00
@  6  -108.992958836       4.46D-04  -1.97D-06     3   1   1   0   2   0   0   0
      Virial theorem: -V/T =      2.002072
@    MULPOP   N_b _1 -0.00; N_b _2 -0.00; 
 -----------------------------------------------------------------------------
   7  Screening settings (-IFTHRS, JTDIIS, DIFDEN, times)  -11    7    T  3.35D+00  3.35D+00
@  7  -108.992958858       4.48D-05  -2.14D-08     3   1   1   0   2   0   0   0
      Virial theorem: -V/T =      2.002076
@    MULPOP   N_b _1 -0.00; N_b _2 -0.00; 
 -----------------------------------------------------------------------------
   8  Screening settings (-IFTHRS, JTDIIS, DIFDEN, times)  -11    8    T  3.46D+00  3.46D+00
@  8  -108.992958858       6.91D-06  -2.28D-10     3   1   1   0   2   0   0   0

@ *** DIIS converged in   8 iterations !
@     Converged SCF energy, gradient:   -108.992958858048    6.91D-06
    - total time used in SIRFCK :              0.00 seconds


 *** SCF orbital energy analysis ***

 Only the 20 lowest virtual orbital energies printed in each symmetry.

 Number of electrons :   14
 Orbital occupations :    3    1    1    0    2    0    0    0

 Sym       Hartree-Fock orbital energies

1 Ag    -15.68310895    -1.47102033    -0.63448748     0.08650819     0.11624764
          0.27865536     0.30092982     0.47565337     0.63651278     0.83451039
          0.93443464     0.94185742     1.14581892     1.86383094     2.02753776
          2.08590274     2.15836956     2.36628324     2.47646905     2.85457180
          3.04862863     3.99056101     4.69789613

2 B3u    -0.61420129     0.08537981     0.35292733     0.39863970     0.73955290
          0.84735353     1.18316547     1.38367932     2.13290938     2.23093791
          2.36624340     2.38158344     3.52746814     3.83653695     4.50990120
          5.16208387     5.25297559     5.65684142     5.80069024     5.95518148
          6.31931290

3 B2u    -0.61420129     0.08537981     0.35292733     0.39863970     0.73955290
          0.84735353     1.18316547     1.38367932     2.13290938     2.23093791
          2.36624340     2.38158344     3.52746814     3.83653695     4.50990120
          5.16208387     5.25297559     5.65684142     5.80069024     5.95518148
          6.31931290

4 B1g     0.27865536     0.83451039     0.94185742     2.02753776     2.15836956
          2.36628324     3.04862863     4.69789613     5.24178838     5.50162562
          5.71900404     6.47893905     7.46169188    11.97391726    12.35162286
         14.53154502    14.75456456    15.32402301    17.55358616

5 B1u   -15.67956497    -0.77917985     0.05848358     0.19628471     0.35341208
          0.35548785     0.46646079     0.79515946     0.84641674     0.93247992
          1.07241397     1.34381326     1.57673014     1.76624345     2.38726210
          2.39688344     2.39793403     2.41881523     2.82237552     3.43238652
          4.00242009     4.23574519

6 B2g     0.09751197     0.16499555     0.35771259     0.64407208     0.91307141
          0.92371794     1.43152851     1.87187286     2.33984941     2.62785887
          2.92549247     2.97659453     3.80709834     5.00810746     5.05820502
          5.61206979     5.62624029     5.95954183     6.48645279     7.55346230

7 B3g     0.09751197     0.16499555     0.35771259     0.64407208     0.91307141
          0.92371794     1.43152851     1.87187286     2.33984941     2.62785887
          2.92549247     2.97659453     3.80709834     5.00810746     5.05820502
          5.61206979     5.62624029     5.95954183     6.48645279     7.55346230

8 Au      0.35548785     0.84641674     1.34381326     2.39688344     2.39793403
          2.41881523     4.00242009     5.24294317     5.57226688     5.72654232
          6.01573904     7.55988600     9.12492874    13.11936268    13.30784680
         14.70514543    15.98502262    17.19696143    18.84309137

    E(LUMO) :     0.05848358 au (symmetry 5)
  - E(HOMO) :    -0.61420129 au (symmetry 2)
  ------------------------------------------
    gap     :     0.67268487 au

 --- Writing SIRIFC interface file

 CPU and wall time for SCF :      27.323      27.335


                       .-----------------------------------.
                       | --- Final results from SIRIUS --- |
                       `-----------------------------------'


@    Spin multiplicity:           1
@    Spatial symmetry:            1 ( irrep  Ag  in D2h )
@    Total charge of molecule:    0

@    Final HF energy:            -108.992958858048                 
@    Nuclear repulsion:            23.622199082109
@    Electronic energy:          -132.615157940156

@    Final gradient norm:           0.000006911030

 
     Date and time (Linux)  : Wed Jan 11 14:16:19 2023
     Host name              : cn020                                   

File label for MO orbitals:  11Jan23   FOCKDIIS

 (Only coefficients > 0.0100 are printed.)

 Molecular orbitals for symmetry species 1  (Ag )
 ------------------------------------------------

    Orbital         1        2        3        4        5        6        7
   1 N_b :1s     0.7073  -0.0070   0.0016  -0.0013   0.0122  -0.0000   0.0258
   2 N_b :1s     0.0022   0.6683   0.2317   0.0845  -0.0489  -0.0000   0.1914
   3 N_b :1s     0.0003   0.0020  -0.0007   0.0009   0.0335  -0.0000   0.0737
   4 N_b :1s    -0.0013  -0.0264   0.0058  -0.0290  -0.2129  -0.0000  -0.5055
   5 N_b :1s    -0.0012  -0.1305   0.0840  -0.4978  -1.0321   0.0000  -3.3842
   6 N_b :1s    -0.0003  -0.0893   0.1149   0.6016  -2.7964   0.0000  -4.5551
   7 N_b :1s     0.0001   0.0038   0.0092  -0.9345   1.7219   0.0000   2.9051
   8 N_b :2pz   -0.0081  -0.3454   0.6980   0.1076  -0.0600  -0.0000  -0.0726
   9 N_b :2pz    0.0020   0.0071  -0.0045  -0.0049   0.0113   0.0000   0.0194
  10 N_b :2pz    0.0027   0.0274  -0.0289   0.1074   0.1516   0.0000   0.5490
  11 N_b :2pz    0.0022   0.0471  -0.0551  -0.3156  -0.3663  -0.0000  -1.3664
  12 N_b :2pz    0.0007   0.0187  -0.0168  -0.0188  -3.7558   0.0000  -8.4788
  13 N_b :2pz    0.0000  -0.0018   0.0022  -1.6805  -2.7346   0.0000  -2.9404
  16 N_b :3d0    0.0003   0.0084  -0.0092  -0.0133  -0.0053  -0.0000  -0.0258
  17 N_b :3d2+   0.0000   0.0000   0.0000   0.0000  -0.0000   0.0128   0.0000
  18 N_b :3d0    0.0004   0.0275  -0.0210   0.0311  -0.0113   0.0000   0.0546
  19 N_b :3d2+  -0.0000  -0.0000  -0.0000  -0.0000   0.0000  -0.0766  -0.0000
  20 N_b :3d0    0.0005   0.0307  -0.0205   0.1637   0.6013   0.0000   1.7604
  21 N_b :3d2+   0.0000   0.0000   0.0000   0.0000  -0.0000   0.1416   0.0000
  22 N_b :3d0    0.0001   0.0083  -0.0106   0.2139   1.8447  -0.0000   4.4567
  23 N_b :3d2+  -0.0000  -0.0000  -0.0000  -0.0000   0.0000  -0.5934  -0.0000
  28 N_b :4f0   -0.0002  -0.0112   0.0059  -0.0561  -0.0753  -0.0000  -0.2958
  29 N_b :4f2+  -0.0000  -0.0000  -0.0000  -0.0000   0.0000   0.0124  -0.0000
  30 N_b :4f0   -0.0001  -0.0046   0.0033  -0.0421  -0.3035  -0.0000  -0.7402
  31 N_b :4f2+  -0.0000   0.0000  -0.0000  -0.0000   0.0000  -0.0136   0.0000
  35 N_b :5g0    0.0001   0.0028  -0.0024   0.0022   0.0050  -0.0000   0.0188
  38 N_b :5g0    0.0000   0.0017  -0.0008   0.0130   0.0403   0.0000   0.1048
  44 N_b :6h0    0.0000  -0.0005   0.0005   0.0018  -0.0091   0.0000  -0.0141

    Orbital         8        9       10       11       12       13
   1 N_b :1s     0.0406  -0.0083  -0.0000   0.0394   0.0000  -0.0697
   2 N_b :1s     0.3418   0.2517  -0.0000   0.1370   0.0000  -0.2427
   3 N_b :1s     0.0864  -0.0885  -0.0000   0.1245   0.0000  -0.2227
   4 N_b :1s    -0.5099   0.7217  -0.0000  -0.9044   0.0000   1.4964
   5 N_b :1s    -2.5059   7.3488   0.0000  -6.4931  -0.0000  11.3945
   6 N_b :1s    -5.2377   1.1152   0.0000  -0.6726  -0.0000   0.2730
   7 N_b :1s     3.2382  -2.3668   0.0000   1.9352   0.0000  -3.0423
   8 N_b :2pz    0.2190   0.0234  -0.0000   0.0076  -0.0000   0.4664
   9 N_b :2pz    0.0504  -0.0241   0.0000  -0.0175  -0.0000  -0.1025
  10 N_b :2pz    0.2904  -1.1657   0.0000   1.1218  -0.0000  -1.6548
  11 N_b :2pz   -0.5497   3.0660   0.0000  -3.3729   0.0000   4.1871
  12 N_b :2pz   -9.6749  10.6783   0.0000  -7.9207   0.0000  13.9975
  13 N_b :2pz   -0.8653   1.6068   0.0000  -1.1925  -0.0000   0.8641
  14 N_b :3d0   -0.0034  -0.0101   0.0000   0.0099   0.0000  -0.0115
  16 N_b :3d0    0.0009   0.0897   0.0000  -0.0735   0.0000   0.0465
  17 N_b :3d2+   0.0000   0.0000   0.0592  -0.0000  -0.0379   0.0000
  18 N_b :3d0   -0.0766  -0.1106  -0.0000   0.1091   0.0000  -0.0806
  19 N_b :3d2+  -0.0000  -0.0000  -0.1200   0.0000   0.0518  -0.0000
  20 N_b :3d0    1.6957  -3.1851  -0.0000   2.7837  -0.0000  -6.3098
  21 N_b :3d2+   0.0000   0.0000   0.6107  -0.0000  -0.7549   0.0000
  22 N_b :3d0    3.5684  -4.5596  -0.0000   3.2931   0.0000  -4.7576
  23 N_b :3d2+  -0.0000  -0.0000  -0.3693   0.0000   0.2237  -0.0000
  26 N_b :4f0    0.0034  -0.0380  -0.0000  -0.0227  -0.0000  -0.0389
  27 N_b :4f2+   0.0000   0.0000  -0.0243  -0.0000  -0.0377   0.0000
  28 N_b :4f0   -0.2089   0.6930   0.0000  -0.4070   0.0000   1.1024
  29 N_b :4f2+  -0.0000  -0.0000   0.0788   0.0000   0.1683  -0.0000
  30 N_b :4f0   -0.6738   0.9371   0.0000  -1.9084   0.0000   1.6849
  31 N_b :4f2+  -0.0000  -0.0000  -0.3954   0.0000  -1.0226  -0.0000
  35 N_b :5g0    0.0191  -0.0426  -0.0000   0.0130   0.0000  -0.0885
  36 N_b :5g2+   0.0000   0.0000   0.0063  -0.0000  -0.0411   0.0000
  38 N_b :5g0    0.0698  -0.1556  -0.0000   0.2709  -0.0000  -0.2180
  39 N_b :5g2+   0.0000   0.0000   0.0358  -0.0000   0.1809   0.0000
  41 N_b :6h0    0.0007   0.0099  -0.0000   0.0021  -0.0000   0.0114
  44 N_b :6h0   -0.0177  -0.0003   0.0000  -0.0447  -0.0000   0.0178
  45 N_b :6h2+  -0.0000  -0.0000  -0.0290   0.0000  -0.0323  -0.0000

 Molecular orbitals for symmetry species 2  (B3u)
 ------------------------------------------------

    Orbital         1        2        3        4        5        6        7
   1 N_b :2px    0.6356   0.1073   0.0959   0.2301  -0.0000   0.0533   0.3646
   2 N_b :2px   -0.0045  -0.0135   0.0346   0.0405   0.0000   0.0598  -0.0531
   3 N_b :2px   -0.0100   0.0238  -0.1706  -0.0111   0.0000  -0.8797  -1.0376
   4 N_b :2px   -0.0241  -0.1551  -0.1556   1.0150   0.0000  -1.5340  -2.8023
   5 N_b :2px   -0.0210   0.3371  -0.9635  -0.9980   0.0000   0.2436   1.3457
   6 N_b :2px    0.0003  -0.6869   0.4312   0.3561  -0.0000   0.0984  -0.2271
   8 N_b :3d1+  -0.0102  -0.0047   0.0002   0.0056   0.0000   0.0228  -0.0218
   9 N_b :3d1+  -0.0293   0.0073   0.0069  -0.0907   0.0000   0.3720   0.6121
  10 N_b :3d1+  -0.0224  -0.0484  -0.1275   0.2760   0.0000  -1.1907  -2.7721
  11 N_b :3d1+  -0.0036   0.0260  -1.6800   1.1277  -0.0000  -2.1352  -1.0301
  12 N_b :4f1+   0.0007   0.0010  -0.0008  -0.0032  -0.0000   0.0046   0.0162
  13 N_b :4f3+  -0.0000  -0.0000  -0.0000  -0.0000  -0.0124  -0.0000  -0.0000
  14 N_b :4f1+   0.0050  -0.0025   0.0042   0.0158  -0.0000  -0.0515  -0.1346
  15 N_b :4f3+   0.0000   0.0000   0.0000   0.0000   0.0587   0.0000   0.0000
  16 N_b :4f1+   0.0073   0.0161   0.0276  -0.0823   0.0000   0.4842   0.9863
  17 N_b :4f3+  -0.0000  -0.0000  -0.0000  -0.0000  -0.1781  -0.0000  -0.0000
  18 N_b :4f1+   0.0007   0.0229   0.5424  -0.5360  -0.0000   2.3294   2.0242
  19 N_b :4f3+   0.0000   0.0000   0.0000   0.0000   0.6339   0.0000   0.0000
  22 N_b :5g1+  -0.0026   0.0017   0.0114  -0.0219  -0.0000  -0.0025  -0.0692
  24 N_b :5g1+  -0.0009  -0.0115  -0.0921   0.1256  -0.0000  -0.5360  -0.7193
  29 N_b :6h1+   0.0007   0.0002   0.0104  -0.0073   0.0000   0.0853   0.1425
  30 N_b :6h3+   0.0000   0.0000   0.0000   0.0000   0.0101   0.0000   0.0000

    Orbital         8        9       10       11
   1 N_b :2px    0.7498   0.0000  -0.1397   0.0000
   2 N_b :2px   -0.2046  -0.0000  -0.1658  -0.0000
   3 N_b :2px    1.9283  -0.0000   3.9688  -0.0000
   4 N_b :2px   -0.5246  -0.0000   1.1652  -0.0000
   5 N_b :2px    0.1460  -0.0000  -0.8402  -0.0000
   6 N_b :2px   -0.1796   0.0000   0.0553   0.0000
   7 N_b :3d1+   0.0114  -0.0000  -0.0027  -0.0000
   8 N_b :3d1+  -0.0483  -0.0000  -0.1153  -0.0000
   9 N_b :3d1+  -0.5103  -0.0000  -2.0048  -0.0000
  10 N_b :3d1+   2.1776   0.0000   5.0889  -0.0000
  11 N_b :3d1+   0.8168   0.0000   0.9384   0.0000
  12 N_b :4f1+   0.0008   0.0000  -0.0246   0.0000
  13 N_b :4f3+  -0.0000   0.0387  -0.0000   0.0238
  14 N_b :4f1+   0.1009   0.0000   0.3642   0.0000
  15 N_b :4f3+   0.0000  -0.1485   0.0000  -0.1040
  16 N_b :4f1+  -0.8048   0.0000  -2.5968   0.0000
  17 N_b :4f3+  -0.0000   0.7583  -0.0000   0.6059
  18 N_b :4f1+  -1.6377  -0.0000  -2.4638   0.0000
  19 N_b :4f3+   0.0000  -0.3662   0.0000  -0.1669
  20 N_b :5g1+  -0.0213  -0.0000  -0.0319  -0.0000
  21 N_b :5g3+  -0.0000  -0.0152  -0.0000   0.0346
  22 N_b :5g1+   0.1319  -0.0000   0.2554   0.0000
  23 N_b :5g3+   0.0000   0.0746   0.0000  -0.2031
  24 N_b :5g1+   0.5481  -0.0000   1.9213   0.0000
  25 N_b :5g3+  -0.0000  -0.2545  -0.0000   0.7644
  26 N_b :6h1+   0.0093   0.0000   0.0184   0.0000
  27 N_b :6h3+  -0.0000   0.0135  -0.0000  -0.0048
  29 N_b :6h1+  -0.1653   0.0000  -0.4138  -0.0000
  30 N_b :6h3+   0.0000  -0.0334   0.0000  -0.0088

 Molecular orbitals for symmetry species 3  (B2u)
 ------------------------------------------------

    Orbital         1        2        3        4        5        6        7
   1 N_b :2py    0.6356   0.1073   0.0959   0.2301   0.0000   0.0533   0.3646
   2 N_b :2py   -0.0045  -0.0135   0.0346   0.0405  -0.0000   0.0598  -0.0531
   3 N_b :2py   -0.0100   0.0238  -0.1706  -0.0111  -0.0000  -0.8797  -1.0376
   4 N_b :2py   -0.0241  -0.1551  -0.1556   1.0150  -0.0000  -1.5340  -2.8023
   5 N_b :2py   -0.0210   0.3371  -0.9635  -0.9980  -0.0000   0.2436   1.3457
   6 N_b :2py    0.0003  -0.6869   0.4312   0.3561   0.0000   0.0984  -0.2271
   8 N_b :3d1-  -0.0102  -0.0047   0.0002   0.0056  -0.0000   0.0228  -0.0218
   9 N_b :3d1-  -0.0293   0.0073   0.0069  -0.0907  -0.0000   0.3720   0.6121
  10 N_b :3d1-  -0.0224  -0.0484  -0.1275   0.2760  -0.0000  -1.1907  -2.7721
  11 N_b :3d1-  -0.0036   0.0260  -1.6800   1.1277   0.0000  -2.1352  -1.0301
  12 N_b :4f3-   0.0000   0.0000   0.0000   0.0000  -0.0124   0.0000   0.0000
  13 N_b :4f1-   0.0007   0.0010  -0.0008  -0.0032   0.0000   0.0046   0.0162
  14 N_b :4f3-  -0.0000  -0.0000  -0.0000  -0.0000   0.0587  -0.0000  -0.0000
  15 N_b :4f1-   0.0050  -0.0025   0.0042   0.0158   0.0000  -0.0515  -0.1346
  16 N_b :4f3-   0.0000   0.0000   0.0000   0.0000  -0.1781   0.0000   0.0000
  17 N_b :4f1-   0.0073   0.0161   0.0276  -0.0823   0.0000   0.4842   0.9863
  18 N_b :4f3-  -0.0000  -0.0000  -0.0000  -0.0000   0.6339  -0.0000  -0.0000
  19 N_b :4f1-   0.0007   0.0229   0.5424  -0.5360   0.0000   2.3294   2.0242
  23 N_b :5g1-  -0.0026   0.0017   0.0114  -0.0219   0.0000  -0.0025  -0.0692
  25 N_b :5g1-  -0.0009  -0.0115  -0.0921   0.1256   0.0000  -0.5360  -0.7193
  30 N_b :6h3-  -0.0000  -0.0000  -0.0000  -0.0000   0.0101  -0.0000  -0.0000
  31 N_b :6h1-   0.0007   0.0002   0.0104  -0.0073  -0.0000   0.0853   0.1425

    Orbital         8        9       10       11
   1 N_b :2py    0.7498  -0.0000  -0.1397  -0.0000
   2 N_b :2py   -0.2046   0.0000  -0.1658   0.0000
   3 N_b :2py    1.9283   0.0000   3.9688   0.0000
   4 N_b :2py   -0.5246   0.0000   1.1652   0.0000
   5 N_b :2py    0.1460   0.0000  -0.8402   0.0000
   6 N_b :2py   -0.1796  -0.0000   0.0553  -0.0000
   7 N_b :3d1-   0.0114   0.0000  -0.0027   0.0000
   8 N_b :3d1-  -0.0483   0.0000  -0.1153   0.0000
   9 N_b :3d1-  -0.5103   0.0000  -2.0048   0.0000
  10 N_b :3d1-   2.1776  -0.0000   5.0889   0.0000
  11 N_b :3d1-   0.8168  -0.0000   0.9384  -0.0000
  12 N_b :4f3-   0.0000   0.0387   0.0000   0.0238
  13 N_b :4f1-   0.0008  -0.0000  -0.0246  -0.0000
  14 N_b :4f3-  -0.0000  -0.1485  -0.0000  -0.1040
  15 N_b :4f1-   0.1009  -0.0000   0.3642  -0.0000
  16 N_b :4f3-   0.0000   0.7583   0.0000   0.6059
  17 N_b :4f1-  -0.8048  -0.0000  -2.5968  -0.0000
  18 N_b :4f3-  -0.0000  -0.3662  -0.0000  -0.1669
  19 N_b :4f1-  -1.6377   0.0000  -2.4638  -0.0000
  20 N_b :5g3-   0.0000  -0.0152   0.0000   0.0346
  21 N_b :5g1-  -0.0213   0.0000  -0.0319   0.0000
  22 N_b :5g3-  -0.0000   0.0746  -0.0000  -0.2031
  23 N_b :5g1-   0.1319   0.0000   0.2554  -0.0000
  24 N_b :5g3-   0.0000  -0.2545   0.0000   0.7644
  25 N_b :5g1-   0.5481   0.0000   1.9213  -0.0000
  27 N_b :6h3-   0.0000   0.0135   0.0000  -0.0048
  28 N_b :6h1-   0.0093  -0.0000   0.0184  -0.0000
  30 N_b :6h3-  -0.0000  -0.0334  -0.0000  -0.0088
  31 N_b :6h1-  -0.1653  -0.0000  -0.4138   0.0000

 Molecular orbitals for symmetry species 4  (B1g)
 ------------------------------------------------

    Orbital         1        2        3        4        5        6        7
   1 N_b :3d2-  -0.0045  -0.0057   0.0051   0.0000  -0.0315   0.0265  -0.0389
   2 N_b :3d2-   0.0128   0.0592  -0.0379   0.0000   0.0775  -0.0429   0.1338
   3 N_b :3d2-  -0.0766  -0.1200   0.0518   0.0000  -0.7483   0.3523  -1.2542
   4 N_b :3d2-   0.1416   0.6107  -0.7549   0.0000   0.4821  -0.6835   0.2923
   5 N_b :3d2-  -0.5934  -0.3693   0.2237   0.0000  -0.1803   0.1879  -0.0381
   6 N_b :4f2-   0.0010   0.0052   0.0086   0.0000   0.0260   0.0095  -0.0320
   7 N_b :4f2-  -0.0017  -0.0243  -0.0377   0.0000  -0.0628  -0.0285   0.1547
   8 N_b :4f2-   0.0124   0.0788   0.1683   0.0000   0.5955   0.4246  -0.4873
   9 N_b :4f2-  -0.0136  -0.3954  -1.0226   0.0000  -0.4626  -0.6730  -0.2793
  10 N_b :5g4-   0.0000   0.0000   0.0000   0.0356   0.0000   0.0000   0.0000
  11 N_b :5g2-  -0.0015  -0.0020   0.0066   0.0000  -0.0015   0.0294   0.0285
  12 N_b :5g4-   0.0000   0.0000   0.0000  -0.2068   0.0000   0.0000   0.0000
  13 N_b :5g2-   0.0056   0.0063  -0.0411   0.0000  -0.0219  -0.1771  -0.1922
  14 N_b :5g4-   0.0000   0.0000   0.0000   0.7131   0.0000   0.0000   0.0000
  15 N_b :5g2-  -0.0043   0.0358   0.1809   0.0000   0.2960   0.9515   1.3423
  17 N_b :6h2-   0.0014   0.0060   0.0075   0.0000   0.0235   0.0153   0.0048
  18 N_b :6h4-   0.0000   0.0000   0.0000   0.0192   0.0000   0.0000   0.0000
  19 N_b :6h2-  -0.0065  -0.0290  -0.0323   0.0000  -0.1188  -0.1157  -0.1399

    Orbital         8        9       10
   1 N_b :3d2-   0.0000   0.0198   0.0000
   2 N_b :3d2-   0.0000  -0.2078   0.0000
   3 N_b :3d2-   0.0000   0.7602   0.0000
   4 N_b :3d2-   0.0000  -0.2525   0.0000
   5 N_b :3d2-   0.0000   0.0717   0.0000
   6 N_b :4f2-   0.0000  -0.0647   0.0000
   7 N_b :4f2-   0.0000   0.5273   0.0000
   8 N_b :4f2-   0.0000  -0.2559   0.0000
   9 N_b :4f2-   0.0000   0.3095   0.0000
  10 N_b :5g4-  -0.0139   0.0000  -0.1021
  11 N_b :5g2-   0.0000   0.0114   0.0000
  12 N_b :5g4-   0.1111   0.0000   0.9636
  13 N_b :5g2-   0.0000  -0.0446   0.0000
  14 N_b :5g4-  -0.1604   0.0000  -0.4287
  15 N_b :5g2-   0.0000  -0.4134   0.0000
  16 N_b :6h4-   0.1386   0.0000  -0.0347
  17 N_b :6h2-   0.0000  -0.1040   0.0000
  18 N_b :6h4-  -0.6613   0.0000   0.1731
  19 N_b :6h2-   0.0000   0.6346   0.0000

 Molecular orbitals for symmetry species 5  (B1u)
 ------------------------------------------------

    Orbital         1        2        3        4        5        6        7
   1 N_b :1s     0.7073   0.0024  -0.0067  -0.0177  -0.0071  -0.0000   0.0232
   2 N_b :1s     0.0007   0.6503   0.0304  -0.2053  -0.0417  -0.0000  -0.1531
   3 N_b :1s     0.0000  -0.0001  -0.0190  -0.0393  -0.0129  -0.0000   0.0733
   4 N_b :1s    -0.0012   0.0005  -0.1358  -0.2922  -0.2862  -0.0000   0.5975
   5 N_b :1s     0.0062   0.0247   2.5485   5.2713   4.5128   0.0000 -10.3419
   6 N_b :1s     0.0064   0.1130  11.5635  24.9558  15.9036   0.0000 -50.7273
   7 N_b :1s     0.0014   0.0327  16.1547  31.4272   5.3419   0.0000 -38.0605
   8 N_b :2pz   -0.0070   0.3269   0.0129  -0.0727   0.0319   0.0000  -0.0138
   9 N_b :2pz    0.0021  -0.0023   0.0426   0.0884   0.0673   0.0000  -0.1735
  10 N_b :2pz    0.0005  -0.0114  -0.4781  -0.9935  -0.6609  -0.0000   1.9238
  11 N_b :2pz   -0.0017  -0.0355  -2.9080  -6.1997  -4.4111  -0.0000  12.4040
  12 N_b :2pz   -0.0006  -0.0435  -4.8200 -10.6512  -4.5688  -0.0000  20.3292
  13 N_b :2pz   -0.0001  -0.0021  -2.8631  -3.9890  -0.6237   0.0000   3.8290
  16 N_b :3d0    0.0004  -0.0023  -0.0033  -0.0036  -0.0138  -0.0000   0.0128
  18 N_b :3d0    0.0010  -0.0043   0.2635   0.5571   0.3977   0.0000  -1.0619
  19 N_b :3d2+  -0.0000  -0.0000  -0.0000   0.0000   0.0000  -0.0375   0.0000
  20 N_b :3d0    0.0009   0.0005   0.8813   1.8813   1.4145   0.0000  -3.6714
  21 N_b :3d2+  -0.0000  -0.0000  -0.0000   0.0000   0.0000  -0.7597   0.0000
  22 N_b :3d0    0.0002   0.0029   0.7692   1.5829   2.5081   0.0000  -2.7032
  23 N_b :3d2+  -0.0000  -0.0000  -0.0000   0.0000   0.0000  -2.6598   0.0000
  24 N_b :4f0   -0.0001   0.0000   0.0027   0.0054   0.0043   0.0000  -0.0107
  26 N_b :4f0   -0.0002  -0.0007  -0.0366  -0.0766  -0.0486  -0.0000   0.1491
  28 N_b :4f0    0.0001   0.0001  -0.1448  -0.3048  -0.1903   0.0000   0.5716
  29 N_b :4f2+   0.0000   0.0000   0.0000  -0.0000  -0.0000   0.1374  -0.0000
  30 N_b :4f0    0.0000  -0.0000  -0.0938  -0.1621  -0.6874  -0.0000   0.2274
  31 N_b :4f2+   0.0000   0.0000   0.0000  -0.0000  -0.0000   0.8428  -0.0000
  35 N_b :5g0   -0.0000   0.0004   0.0212   0.0467  -0.0052   0.0000  -0.0911
  36 N_b :5g2+  -0.0000  -0.0000  -0.0000   0.0000   0.0000   0.0252   0.0000
  38 N_b :5g0   -0.0002  -0.0005   0.0217   0.0382   0.1061  -0.0000  -0.0526
  39 N_b :5g2+  -0.0000  -0.0000  -0.0000   0.0000   0.0000  -0.1526   0.0000
  44 N_b :6h0    0.0001  -0.0001  -0.0048  -0.0099  -0.0022  -0.0000   0.0159
  45 N_b :6h2+   0.0000   0.0000   0.0000  -0.0000  -0.0000   0.0109  -0.0000

    Orbital         8        9       10       11       12
   1 N_b :1s     0.0104  -0.0000   0.0616   0.0178   0.0000
   2 N_b :1s    -0.0771  -0.0000   0.6538   0.2065   0.0000
   3 N_b :1s     0.0333  -0.0000   0.1202   0.0636   0.0000
   4 N_b :1s     0.0561  -0.0000   1.3301  -1.6500   0.0000
   5 N_b :1s    -7.0400   0.0000 -20.4744  -0.5808  -0.0000
   6 N_b :1s   -15.2417   0.0000 -84.5385  25.8105  -0.0000
   7 N_b :1s    -2.5571   0.0000 -33.9463   8.9642  -0.0000
   8 N_b :2pz    0.4054   0.0000  -0.0524  -0.6078  -0.0000
   9 N_b :2pz   -0.0591   0.0000  -0.3385   0.1497  -0.0000
  10 N_b :2pz    0.9355  -0.0000   3.6598  -0.1136   0.0000
  11 N_b :2pz    5.3685  -0.0000  24.5613  -6.5515   0.0000
  12 N_b :2pz    3.8596  -0.0000  27.1473  -7.4683   0.0000
  13 N_b :2pz    0.2687   0.0000   3.0188  -0.6938   0.0000
  15 N_b :3d2+   0.0000  -0.0043  -0.0000  -0.0000   0.0145
  16 N_b :3d0    0.0397  -0.0000   0.0140  -0.0178   0.0000
  17 N_b :3d2+  -0.0000   0.0372   0.0000   0.0000  -0.0594
  18 N_b :3d0   -0.4402   0.0000  -2.1159   0.3469  -0.0000
  19 N_b :3d2+   0.0000  -0.2239  -0.0000  -0.0000   0.7712
  20 N_b :3d0   -2.1652   0.0000  -7.3379  -1.1085  -0.0000
  21 N_b :3d2+   0.0000  -3.0481  -0.0000  -0.0000   6.9813
  22 N_b :3d0   -2.1780   0.0000  -3.6876  -0.5545  -0.0000
  23 N_b :3d2+   0.0000  -2.7402  -0.0000  -0.0000   1.6655
  24 N_b :4f0   -0.0049   0.0000  -0.0198   0.0095  -0.0000
  26 N_b :4f0    0.0446  -0.0000   0.2872  -0.1141   0.0000
  27 N_b :4f2+  -0.0000  -0.0057   0.0000   0.0000  -0.0167
  28 N_b :4f0    0.4758   0.0000   1.0864   0.8576  -0.0000
  29 N_b :4f2+  -0.0000   0.8732   0.0000   0.0000  -2.4554
  30 N_b :4f0    1.7836  -0.0000   0.6423   2.6674  -0.0000
  31 N_b :4f2+  -0.0000   2.6775   0.0000   0.0000  -3.1311
  32 N_b :5g0   -0.0061   0.0000  -0.0104   0.0119  -0.0000
  33 N_b :5g2+  -0.0000  -0.0017   0.0000   0.0000  -0.0165
  35 N_b :5g0    0.0027   0.0000  -0.1524  -0.0340  -0.0000
  36 N_b :5g2+   0.0000  -0.0133  -0.0000  -0.0000   0.2546
  38 N_b :5g0   -0.3590  -0.0000  -0.1196  -0.8014   0.0000
  39 N_b :5g2+   0.0000  -0.5943  -0.0000  -0.0000   1.1656
  41 N_b :6h0   -0.0064  -0.0000   0.0126  -0.0214   0.0000
  42 N_b :6h2+   0.0000  -0.0114  -0.0000  -0.0000   0.0083
  44 N_b :6h0    0.0384   0.0000   0.0223   0.1558  -0.0000
  45 N_b :6h2+  -0.0000   0.0786   0.0000   0.0000  -0.2380

 Molecular orbitals for symmetry species 6  (B2g)
 ------------------------------------------------

    Orbital         1        2        3        4        5        6        7
   1 N_b :2px    0.2276   0.5404   0.3755  -0.3390   0.1020  -0.0000   0.7967
   2 N_b :2px   -0.0116   0.0109  -0.0586  -0.1122   0.0657   0.0000  -0.2579
   3 N_b :2px    0.0755  -0.0996   0.3544   0.4809  -0.6041   0.0000   1.2953
   4 N_b :2px    1.2309  -1.5415   5.1788   3.6323 -13.9551   0.0000  12.7873
   5 N_b :2px    3.5669  -4.4340  18.1768  21.1661 -19.5491   0.0000  21.5224
   6 N_b :2px    3.2542  -2.6296   3.4922   1.3568  -1.9658  -0.0000   0.9705
   7 N_b :3d1+  -0.0006   0.0027  -0.0032   0.0006   0.0125   0.0000  -0.0024
   8 N_b :3d1+   0.0111  -0.0059   0.0336   0.0060  -0.0962   0.0000   0.0346
   9 N_b :3d1+  -0.1052   0.1639  -0.4491  -0.3335   1.1524  -0.0000  -1.0936
  10 N_b :3d1+  -0.7654   1.0553  -3.4642  -3.3382   8.4108  -0.0000 -10.1429
  11 N_b :3d1+  -1.4449   2.0258  -7.1903  -6.9070   6.7328  -0.0000  -6.5541
  12 N_b :4f1+  -0.0016   0.0010  -0.0054  -0.0021   0.0129  -0.0000  -0.0115
  13 N_b :4f3+  -0.0000  -0.0000  -0.0000   0.0000  -0.0000  -0.0109  -0.0000
  14 N_b :4f1+   0.0116  -0.0180   0.0481   0.0390  -0.1265   0.0000   0.1224
  15 N_b :4f3+   0.0000   0.0000   0.0000  -0.0000   0.0000   0.0516   0.0000
  16 N_b :4f1+   0.1335  -0.1814   0.5782   0.5359  -1.4043   0.0000   1.6176
  17 N_b :4f3+  -0.0000  -0.0000  -0.0000   0.0000  -0.0000  -0.1269  -0.0000
  18 N_b :4f1+   0.2607  -0.3563   1.1701   0.9579  -3.0941   0.0000   2.4251
  19 N_b :4f3+  -0.0000  -0.0000  -0.0000   0.0000  -0.0000   1.4636  -0.0000
  22 N_b :5g1+  -0.0134   0.0173  -0.0588  -0.0635   0.1308  -0.0000  -0.1962
  23 N_b :5g3+   0.0000   0.0000   0.0000  -0.0000   0.0000   0.0403   0.0000
  24 N_b :5g1+  -0.0397   0.0520  -0.1602  -0.1077   0.4174  -0.0000  -0.2856
  25 N_b :5g3+   0.0000   0.0000   0.0000  -0.0000   0.0000  -0.1994   0.0000
  26 N_b :6h1+   0.0010  -0.0012   0.0044   0.0047  -0.0104   0.0000   0.0174
  29 N_b :6h1+   0.0068  -0.0088   0.0281   0.0234  -0.0636   0.0000   0.0592
  30 N_b :6h3+  -0.0000  -0.0000  -0.0000   0.0000  -0.0000   0.0236  -0.0000

    Orbital         8        9       10
   1 N_b :2px    0.4051  -0.0000  -0.1359
   2 N_b :2px    0.1091   0.0000  -0.3325
   3 N_b :2px   -0.9991   0.0000   1.2134
   4 N_b :2px  -26.9045   0.0000  18.6829
   5 N_b :2px  -14.9405   0.0000   7.4270
   6 N_b :2px   -1.1158   0.0000   0.1489
   7 N_b :3d1+   0.0273   0.0000   0.0020
   8 N_b :3d1+  -0.1855   0.0000   0.1396
   9 N_b :3d1+   2.4599  -0.0000  -2.4031
  10 N_b :3d1+  16.1533   0.0000 -11.7589
  11 N_b :3d1+   4.7625  -0.0000  -2.0405
  12 N_b :4f1+   0.0307  -0.0000  -0.0495
  13 N_b :4f3+  -0.0000   0.0233   0.0000
  14 N_b :4f1+  -0.2697   0.0000   0.5345
  15 N_b :4f3+   0.0000  -0.0813  -0.0000
  16 N_b :4f1+  -2.8173   0.0000   2.9950
  17 N_b :4f3+  -0.0000   0.0893   0.0000
  18 N_b :4f1+  -3.3909   0.0000   1.3359
  19 N_b :4f3+  -0.0000  -1.0354   0.0000
  21 N_b :5g3+  -0.0000   0.0233   0.0000
  22 N_b :5g1+   0.3052   0.0000  -0.7487
  23 N_b :5g3+   0.0000  -0.1375  -0.0000
  24 N_b :5g1+   0.7380  -0.0000   0.8611
  25 N_b :5g3+   0.0000   1.2864  -0.0000
  26 N_b :6h1+  -0.0284  -0.0000   0.0968
  27 N_b :6h3+   0.0000   0.0311  -0.0000
  29 N_b :6h1+  -0.1140   0.0000  -0.0359
  30 N_b :6h3+  -0.0000  -0.1720   0.0000

 Molecular orbitals for symmetry species 7  (B3g)
 ------------------------------------------------

    Orbital         1        2        3        4        5        6        7
   1 N_b :2py    0.2276   0.5404   0.3755  -0.3390   0.1020   0.0000   0.7967
   2 N_b :2py   -0.0116   0.0109  -0.0586  -0.1122   0.0657  -0.0000  -0.2579
   3 N_b :2py    0.0755  -0.0996   0.3544   0.4809  -0.6041  -0.0000   1.2953
   4 N_b :2py    1.2309  -1.5415   5.1788   3.6323 -13.9551  -0.0000  12.7873
   5 N_b :2py    3.5669  -4.4340  18.1768  21.1661 -19.5491  -0.0000  21.5224
   6 N_b :2py    3.2542  -2.6296   3.4922   1.3568  -1.9658   0.0000   0.9705
   7 N_b :3d1-  -0.0006   0.0027  -0.0032   0.0006   0.0125  -0.0000  -0.0024
   8 N_b :3d1-   0.0111  -0.0059   0.0336   0.0060  -0.0962  -0.0000   0.0346
   9 N_b :3d1-  -0.1052   0.1639  -0.4491  -0.3335   1.1524   0.0000  -1.0936
  10 N_b :3d1-  -0.7654   1.0553  -3.4642  -3.3382   8.4108   0.0000 -10.1429
  11 N_b :3d1-  -1.4449   2.0258  -7.1903  -6.9070   6.7328  -0.0000  -6.5541
  12 N_b :4f3-   0.0000   0.0000   0.0000  -0.0000   0.0000  -0.0109   0.0000
  13 N_b :4f1-  -0.0016   0.0010  -0.0054  -0.0021   0.0129   0.0000  -0.0115
  14 N_b :4f3-  -0.0000  -0.0000  -0.0000   0.0000  -0.0000   0.0516  -0.0000
  15 N_b :4f1-   0.0116  -0.0180   0.0481   0.0390  -0.1265  -0.0000   0.1224
  16 N_b :4f3-   0.0000   0.0000   0.0000  -0.0000   0.0000  -0.1269   0.0000
  17 N_b :4f1-   0.1335  -0.1814   0.5782   0.5359  -1.4043  -0.0000   1.6176
  18 N_b :4f3-   0.0000   0.0000   0.0000  -0.0000   0.0000   1.4636   0.0000
  19 N_b :4f1-   0.2607  -0.3563   1.1701   0.9579  -3.0941  -0.0000   2.4251
  22 N_b :5g3-  -0.0000  -0.0000  -0.0000   0.0000  -0.0000   0.0403  -0.0000
  23 N_b :5g1-  -0.0134   0.0173  -0.0588  -0.0635   0.1308   0.0000  -0.1962
  24 N_b :5g3-  -0.0000  -0.0000  -0.0000   0.0000  -0.0000  -0.1994  -0.0000
  25 N_b :5g1-  -0.0397   0.0520  -0.1602  -0.1077   0.4174   0.0000  -0.2856
  28 N_b :6h1-   0.0010  -0.0012   0.0044   0.0047  -0.0104  -0.0000   0.0174
  30 N_b :6h3-   0.0000   0.0000   0.0000  -0.0000   0.0000   0.0236   0.0000
  31 N_b :6h1-   0.0068  -0.0088   0.0281   0.0234  -0.0636   0.0000   0.0592

    Orbital         8        9       10
   1 N_b :2py    0.4051   0.0000  -0.1359
   2 N_b :2py    0.1091  -0.0000  -0.3325
   3 N_b :2py   -0.9991  -0.0000   1.2134
   4 N_b :2py  -26.9045  -0.0000  18.6829
   5 N_b :2py  -14.9405  -0.0000   7.4270
   6 N_b :2py   -1.1158   0.0000   0.1489
   7 N_b :3d1-   0.0273  -0.0000   0.0020
   8 N_b :3d1-  -0.1855  -0.0000   0.1396
   9 N_b :3d1-   2.4599   0.0000  -2.4031
  10 N_b :3d1-  16.1533  -0.0000 -11.7589
  11 N_b :3d1-   4.7625   0.0000  -2.0405
  12 N_b :4f3-   0.0000   0.0233  -0.0000
  13 N_b :4f1-   0.0307   0.0000  -0.0495
  14 N_b :4f3-  -0.0000  -0.0813   0.0000
  15 N_b :4f1-  -0.2697  -0.0000   0.5345
  16 N_b :4f3-   0.0000   0.0893  -0.0000
  17 N_b :4f1-  -2.8173  -0.0000   2.9950
  18 N_b :4f3-   0.0000  -1.0354  -0.0000
  19 N_b :4f1-  -3.3909  -0.0000   1.3359
  20 N_b :5g3-   0.0000   0.0233  -0.0000
  22 N_b :5g3-  -0.0000  -0.1375   0.0000
  23 N_b :5g1-   0.3052   0.0000  -0.7487
  24 N_b :5g3-  -0.0000   1.2864   0.0000
  25 N_b :5g1-   0.7380   0.0000   0.8611
  27 N_b :6h3-  -0.0000   0.0311   0.0000
  28 N_b :6h1-  -0.0284   0.0000   0.0968
  30 N_b :6h3-   0.0000  -0.1720  -0.0000
  31 N_b :6h1-  -0.1140  -0.0000  -0.0359

 Molecular orbitals for symmetry species 8  (Au )
 ------------------------------------------------

    Orbital         1        2        3        4        5        6        7
   1 N_b :3d2-  -0.0016  -0.0043   0.0145  -0.0076   0.0000   0.0159  -0.0682
   2 N_b :3d2-   0.0046   0.0372  -0.0594  -0.0504   0.0000  -0.1909   0.2072
   3 N_b :3d2-  -0.0375  -0.2239   0.7712   0.3319   0.0000   1.1398  -2.9011
   4 N_b :3d2-  -0.7597  -3.0481   6.9813   1.8515   0.0000   8.4026  -7.2591
   5 N_b :3d2-  -2.6598  -2.7402   1.6655  -0.5990   0.0000   1.3584  -0.6997
   6 N_b :4f2-   0.0008   0.0014   0.0023   0.0049   0.0000  -0.0032   0.0253
   7 N_b :4f2-  -0.0076  -0.0057  -0.0167  -0.0791   0.0000   0.0126  -0.1202
   8 N_b :4f2-   0.1374   0.8732  -2.4554  -2.0932   0.0000  -4.1837   5.7690
   9 N_b :4f2-   0.8428   2.6775  -3.1311   0.1129   0.0000  -2.9746   1.9793
  10 N_b :5g4-   0.0000   0.0000   0.0000   0.0000   0.0389   0.0000   0.0000
  11 N_b :5g2-  -0.0029  -0.0017  -0.0165  -0.0445   0.0000  -0.0111   0.0162
  12 N_b :5g4-   0.0000   0.0000   0.0000   0.0000  -0.2442   0.0000   0.0000
  13 N_b :5g2-   0.0252  -0.0133   0.2546   0.5468   0.0000   0.2796  -0.3051
  14 N_b :5g4-   0.0000   0.0000   0.0000   0.0000   1.0947   0.0000   0.0000
  15 N_b :5g2-  -0.1526  -0.5943   1.1656  -0.0369   0.0000   2.3945  -2.4573
  16 N_b :6h4-   0.0000   0.0000   0.0000   0.0000   0.0103   0.0000   0.0000
  17 N_b :6h2-  -0.0050  -0.0114   0.0083  -0.0253   0.0000   0.0204   0.0092
  18 N_b :6h4-   0.0000   0.0000   0.0000   0.0000  -0.0491   0.0000   0.0000
  19 N_b :6h2-   0.0109   0.0786  -0.2380  -0.2209   0.0000  -0.3597   0.2801

    Orbital         8        9       10
   1 N_b :3d2-  -0.0296   0.0000  -0.0031
   2 N_b :3d2-   0.0718   0.0000   0.0312
   3 N_b :3d2-  -3.2171   0.0000  -0.3272
   4 N_b :3d2-  -4.3351   0.0000  -1.2048
   5 N_b :3d2-  -0.1323   0.0000  -0.5403
   6 N_b :4f2-  -0.0568   0.0000  -0.0339
   7 N_b :4f2-   0.3146   0.0000   0.3752
   8 N_b :4f2-   4.5507   0.0000   0.1160
   9 N_b :4f2-   0.9103   0.0000   0.7229
  10 N_b :5g4-   0.0000  -0.0481   0.0000
  11 N_b :5g2-   0.0905   0.0000  -0.0681
  12 N_b :5g4-   0.0000   0.4657   0.0000
  13 N_b :5g2-  -1.4984   0.0000   0.8272
  14 N_b :5g4-   0.0000  -0.7348   0.0000
  15 N_b :5g2-  -1.3748   0.0000  -0.7735
  16 N_b :6h4-   0.0000  -0.1487   0.0000
  17 N_b :6h2-  -0.0257   0.0000  -0.1689
  18 N_b :6h4-   0.0000   1.0404   0.0000
  19 N_b :6h2-   1.1976   0.0000   0.6466

  Total CPU  time used in SIRIUS :  27.36 seconds
  Total wall time used in SIRIUS :  27.38 seconds

 
     Date and time (Linux)  : Wed Jan 11 14:16:19 2023
     Host name              : cn020                                   


                     .---------------------------------------.
                     | End of Wave Function Section (SIRIUS) |
                     `---------------------------------------'



                 .------------------------------------------------.
                 | Starting in Dynamic Property Section (RESPONS) |
                 `------------------------------------------------'


 ----------------------------------------------------------------------------------------
  RESPONSE  -  an MCSCF, MC-srDFT, DFT, SOPPA and SOPPA-srDFT response property program
 ----------------------------------------------------------------------------------------


 -------- OUTPUT FROM RESPONSE INPUT PROCESSING --------




 Linear Response calculation
 ---------------------------

 Print level                                    : IPRLR  =   2
 Maximum number of iterations                   : MAXITL =  60
 Threshold for relative convergence             : THCLR  = 1.000D-03
 Maximum iterations in optimal orbital algorithm: MAXITO =   5

  9 B-frequencies  0.000000D+00  1.825019D-02  3.650038D-02  5.475056D-02  7.300075D-02
  9.125094D-02  1.095011D-01  1.277513D-01  1.460015D-01

    1 second order properties calculated with symmetry no.    2 and labels:

          XDIPLEN 

    1 second order properties calculated with symmetry no.    3 and labels:

          YDIPLEN 

    1 second order properties calculated with symmetry no.    5 and labels:

          ZDIPLEN 


   SCF energy         :     -108.992958858047558
 -- inactive part     :     -132.615157940156394
 -- nuclear repulsion :       23.622199082108835


                     ***************************************
                     *** RHF response calculation (TDHF) ***
                     ***************************************

 ----------------------------------------------------------------
 ----- Linear response calculation
 ----- Symmetry of excitation/property operator(s)    2  ( B3u)
 ----------------------------------------------------------------

 Number of excitations of this symmetry            0
 Number of response properties of this symmetry    1
 Number of C6/C8 properties of this symmetry       0


 Perturbation symmetry.     KSYMOP:           2
 Perturbation spin symmetry.TRPLET:           F
 Orbital variables.         KZWOPT:         214
 Configuration variables.   KZCONF:           0
 Total number of variables. KZVAR :         214


 RSPLR -- linear response calculation for symmetry 2  ( B3u)
 RSPLR -- operator label : XDIPLEN 
 RSPLR -- operator spin  :   0
 RSPLR -- frequencies    :     0.000000  0.018250  0.036500  0.054751  0.073001
                               0.091251  0.109501  0.127751  0.146002



 ---  SOLVING SETS OF LINEAR EQUATIONS FOR LINEAR RESPONSE PROPERTIES ---

 Operator symmetry = 2  ( B3u); triplet =   F

RSPORT:    1 out of    9 new trial vectors linear dependent

 ** RSPCTL MICROITERATION NUMBER    1

       No.  Residual tot.,    conf., and orb.    Bnorm      Frequency 
      ----------------------------------------------------------------
         1    8.14314D-01  0.00D+00  8.14D-01  2.34D+00    0.00000D+00
         2    8.14800D-01  0.00D+00  8.15D-01  2.35D+00    1.82502D-02
         3    8.16261D-01  0.00D+00  8.16D-01  2.36D+00    3.65004D-02
         4    8.18715D-01  0.00D+00  8.19D-01  2.37D+00    5.47506D-02
         5    8.22191D-01  0.00D+00  8.22D-01  2.39D+00    7.30008D-02
         6    8.26729D-01  0.00D+00  8.27D-01  2.42D+00    9.12509D-02
         7    8.32387D-01  0.00D+00  8.32D-01  2.46D+00    1.09501D-01
         8    8.39236D-01  0.00D+00  8.39D-01  2.51D+00    1.27751D-01
         9    8.47367D-01  0.00D+00  8.47D-01  2.56D+00    1.46002D-01

 ** RSPCTL MICROITERATION NUMBER    2

       No.  Residual tot.,    conf., and orb.    Bnorm      Frequency 
      ----------------------------------------------------------------
         1    6.59888D-02  0.00D+00  6.60D-02  2.40D+00    0.00000D+00
         2    6.60231D-02  0.00D+00  6.60D-02  2.40D+00    1.82502D-02
         3    6.61265D-02  0.00D+00  6.61D-02  2.41D+00    3.65004D-02
         4    6.63005D-02  0.00D+00  6.63D-02  2.43D+00    5.47506D-02
         5    6.65480D-02  0.00D+00  6.65D-02  2.45D+00    7.30008D-02
         6    6.68730D-02  0.00D+00  6.69D-02  2.49D+00    9.12509D-02
         7    6.72815D-02  0.00D+00  6.73D-02  2.52D+00    1.09501D-01
         8    6.77816D-02  0.00D+00  6.78D-02  2.57D+00    1.27751D-01
         9    6.83843D-02  0.00D+00  6.84D-02  2.63D+00    1.46002D-01

 ** RSPCTL MICROITERATION NUMBER    3

       No.  Residual tot.,    conf., and orb.    Bnorm      Frequency 
      ----------------------------------------------------------------
         1    5.75134D-03  0.00D+00  5.75D-03  2.40D+00    0.00000D+00
         2    5.75361D-03  0.00D+00  5.75D-03  2.40D+00    1.82502D-02
         3    5.76043D-03  0.00D+00  5.76D-03  2.41D+00    3.65004D-02
         4    5.77179D-03  0.00D+00  5.77D-03  2.43D+00    5.47506D-02
         5    5.78773D-03  0.00D+00  5.79D-03  2.45D+00    7.30008D-02
         6    5.80830D-03  0.00D+00  5.81D-03  2.49D+00    9.12509D-02
         7    5.83370D-03  0.00D+00  5.83D-03  2.52D+00    1.09501D-01
         8    5.86427D-03  0.00D+00  5.86D-03  2.57D+00    1.27751D-01
         9    5.90076D-03  0.00D+00  5.90D-03  2.63D+00    1.46002D-01

 ** RSPCTL MICROITERATION NUMBER    4

       No.  Residual tot.,    conf., and orb.    Bnorm      Frequency 
      ----------------------------------------------------------------
         1    3.04749D-04  0.00D+00  3.05D-04  2.40D+00    0.00000D+00
         2    3.05015D-04  0.00D+00  3.05D-04  2.40D+00    1.82502D-02
         3    3.05820D-04  0.00D+00  3.06D-04  2.41D+00    3.65004D-02
         4    3.07194D-04  0.00D+00  3.07D-04  2.43D+00    5.47506D-02
         5    3.09194D-04  0.00D+00  3.09D-04  2.45D+00    7.30008D-02
         6    3.11909D-04  0.00D+00  3.12D-04  2.49D+00    9.12509D-02
         7    3.15485D-04  0.00D+00  3.15D-04  2.52D+00    1.09501D-01
         8    3.20145D-04  0.00D+00  3.20D-04  2.57D+00    1.27751D-01
         9    3.26234D-04  0.00D+00  3.26D-04  2.63D+00    1.46002D-01

 *** THE REQUESTED    9 SOLUTION VECTORS CONVERGED

 Convergence of RSP solution vectors, threshold = 1.00D-03
 ---------------------------------------------------------------
 (dimension of paired reduced space:   70)
 RSP solution vector no.    1; norm of residual   1.27D-04
 RSP solution vector no.    2; norm of residual   1.27D-04
 RSP solution vector no.    3; norm of residual   1.27D-04
 RSP solution vector no.    4; norm of residual   1.26D-04
 RSP solution vector no.    5; norm of residual   1.26D-04
 RSP solution vector no.    6; norm of residual   1.25D-04
 RSP solution vector no.    7; norm of residual   1.25D-04
 RSP solution vector no.    8; norm of residual   1.24D-04
 RSP solution vector no.    9; norm of residual   1.24D-04

 *** RSPCTL MICROITERATIONS CONVERGED


           Final output of second order properties from linear response
           ------------------------------------------------------------


@ Spin symmetry of operators: singlet

 Note that minus the linear response function: - << A; B >>(omega) is printed.
 The results are of quadratic accuracy using Sellers formula.

@ FREQUENCY INDEPENDENT SECOND ORDER PROPERTIES

@ -<< XDIPLEN  ; XDIPLEN  >> =  9.833397744909E+00

@ FREQUENCY DEPENDENT SECOND ORDER PROPERTIES WITH FREQUENCY :

@    a.u.:  1.8250188D-02
@    cm-1:  4.0054531D+03
@    eV  :  4.9661286D-01
@  kJ/mol:  4.7915860D+01
@    nm  :  2.4965964D+03

@ -<< XDIPLEN  ; XDIPLEN  >> =  9.840234673020E+00

@ FREQUENCY DEPENDENT SECOND ORDER PROPERTIES WITH FREQUENCY :

@    a.u.:  3.6500375D-02
@    cm-1:  8.0109063D+03
@    eV  :  9.9322573D-01
@  kJ/mol:  9.5831720D+01
@    nm  :  1.2482982D+03

@ -<< XDIPLEN  ; XDIPLEN  >> =  9.860820935191E+00

@ FREQUENCY DEPENDENT SECOND ORDER PROPERTIES WITH FREQUENCY :

@    a.u.:  5.4750563D-02
@    cm-1:  1.2016359D+04
@    eV  :  1.4898386D+00
@  kJ/mol:  1.4374758D+02
@    nm  :  8.3219881D+02

@ -<< XDIPLEN  ; XDIPLEN  >> =  9.895385352599E+00

@ FREQUENCY DEPENDENT SECOND ORDER PROPERTIES WITH FREQUENCY :

@    a.u.:  7.3000750D-02
@    cm-1:  1.6021813D+04
@    eV  :  1.9864515D+00
@  kJ/mol:  1.9166344D+02
@    nm  :  6.2414911D+02

@ -<< XDIPLEN  ; XDIPLEN  >> =  9.944317406545E+00

@ FREQUENCY DEPENDENT SECOND ORDER PROPERTIES WITH FREQUENCY :

@    a.u.:  9.1250938D-02
@    cm-1:  2.0027266D+04
@    eV  :  2.4830643D+00
@  kJ/mol:  2.3957930D+02
@    nm  :  4.9931929D+02

@ -<< XDIPLEN  ; XDIPLEN  >> =  1.000817996285E+01

@ FREQUENCY DEPENDENT SECOND ORDER PROPERTIES WITH FREQUENCY :

@    a.u.:  1.0950113D-01
@    cm-1:  2.4032719D+04
@    eV  :  2.9796772D+00
@  kJ/mol:  2.8749516D+02
@    nm  :  4.1609940D+02

@ -<< XDIPLEN  ; XDIPLEN  >> =  1.008772826086E+01

@ FREQUENCY DEPENDENT SECOND ORDER PROPERTIES WITH FREQUENCY :

@    a.u.:  1.2775131D-01
@    cm-1:  2.8038172D+04
@    eV  :  3.4762900D+00
@  kJ/mol:  3.3541102D+02
@    nm  :  3.5665663D+02

@ -<< XDIPLEN  ; XDIPLEN  >> =  1.018393650265E+01

@ FREQUENCY DEPENDENT SECOND ORDER PROPERTIES WITH FREQUENCY :

@    a.u.:  1.4600150D-01
@    cm-1:  3.2043625D+04
@    eV  :  3.9729029D+00
@  kJ/mol:  3.8332688D+02
@    nm  :  3.1207455D+02

@ -<< XDIPLEN  ; XDIPLEN  >> =  1.029803402156E+01


 Time used in linear response calculation is     21.80 CPU seconds for symmetry 2
 ----------------------------------------------------------------
 ----- Linear response calculation
 ----- Symmetry of excitation/property operator(s)    3  ( B2u)
 ----------------------------------------------------------------

 Number of excitations of this symmetry            0
 Number of response properties of this symmetry    1
 Number of C6/C8 properties of this symmetry       0


 Perturbation symmetry.     KSYMOP:           3
 Perturbation spin symmetry.TRPLET:           F
 Orbital variables.         KZWOPT:         214
 Configuration variables.   KZCONF:           0
 Total number of variables. KZVAR :         214


 RSPLR -- linear response calculation for symmetry 3  ( B2u)
 RSPLR -- operator label : YDIPLEN 
 RSPLR -- operator spin  :   0
 RSPLR -- frequencies    :     0.000000  0.018250  0.036500  0.054751  0.073001
                               0.091251  0.109501  0.127751  0.146002



 ---  SOLVING SETS OF LINEAR EQUATIONS FOR LINEAR RESPONSE PROPERTIES ---

 Operator symmetry = 3  ( B2u); triplet =   F

RSPORT:    1 out of    9 new trial vectors linear dependent

 ** RSPCTL MICROITERATION NUMBER    1

       No.  Residual tot.,    conf., and orb.    Bnorm      Frequency 
      ----------------------------------------------------------------
         1    8.10027D-01  0.00D+00  8.10D-01  2.34D+00    0.00000D+00
         2    8.10526D-01  0.00D+00  8.11D-01  2.34D+00    1.82502D-02
         3    8.12032D-01  0.00D+00  8.12D-01  2.35D+00    3.65004D-02
         4    8.14562D-01  0.00D+00  8.15D-01  2.37D+00    5.47506D-02
         5    8.18147D-01  0.00D+00  8.18D-01  2.39D+00    7.30008D-02
         6    8.22834D-01  0.00D+00  8.23D-01  2.42D+00    9.12509D-02
         7    8.28684D-01  0.00D+00  8.29D-01  2.46D+00    1.09501D-01
         8    8.35777D-01  0.00D+00  8.36D-01  2.51D+00    1.27751D-01
         9    8.44214D-01  0.00D+00  8.44D-01  2.56D+00    1.46002D-01

 ** RSPCTL MICROITERATION NUMBER    2

       No.  Residual tot.,    conf., and orb.    Bnorm      Frequency 
      ----------------------------------------------------------------
         1    6.91301D-02  0.00D+00  6.91D-02  2.40D+00    0.00000D+00
         2    6.91699D-02  0.00D+00  6.92D-02  2.40D+00    1.82502D-02
         3    6.92900D-02  0.00D+00  6.93D-02  2.41D+00    3.65004D-02
         4    6.94930D-02  0.00D+00  6.95D-02  2.43D+00    5.47506D-02
         5    6.97833D-02  0.00D+00  6.98D-02  2.45D+00    7.30008D-02
         6    7.01675D-02  0.00D+00  7.02D-02  2.49D+00    9.12509D-02
         7    7.06550D-02  0.00D+00  7.07D-02  2.52D+00    1.09501D-01
         8    7.12588D-02  0.00D+00  7.13D-02  2.57D+00    1.27751D-01
         9    7.19967D-02  0.00D+00  7.20D-02  2.63D+00    1.46002D-01

 ** RSPCTL MICROITERATION NUMBER    3

       No.  Residual tot.,    conf., and orb.    Bnorm      Frequency 
      ----------------------------------------------------------------
         1    5.87353D-03  0.00D+00  5.87D-03  2.40D+00    0.00000D+00
         2    5.87416D-03  0.00D+00  5.87D-03  2.40D+00    1.82502D-02
         3    5.87613D-03  0.00D+00  5.88D-03  2.41D+00    3.65004D-02
         4    5.87971D-03  0.00D+00  5.88D-03  2.43D+00    5.47506D-02
         5    5.88543D-03  0.00D+00  5.89D-03  2.45D+00    7.30008D-02
         6    5.89417D-03  0.00D+00  5.89D-03  2.49D+00    9.12509D-02
         7    5.90736D-03  0.00D+00  5.91D-03  2.52D+00    1.09501D-01
         8    5.92735D-03  0.00D+00  5.93D-03  2.57D+00    1.27751D-01
         9    5.95781D-03  0.00D+00  5.96D-03  2.63D+00    1.46002D-01

 ** RSPCTL MICROITERATION NUMBER    4

       No.  Residual tot.,    conf., and orb.    Bnorm      Frequency 
      ----------------------------------------------------------------
         1    3.56061D-04  0.00D+00  3.56D-04  2.40D+00    0.00000D+00
         2    3.56100D-04  0.00D+00  3.56D-04  2.40D+00    1.82502D-02
         3    3.56216D-04  0.00D+00  3.56D-04  2.41D+00    3.65004D-02
         4    3.56412D-04  0.00D+00  3.56D-04  2.43D+00    5.47506D-02
         5    3.56695D-04  0.00D+00  3.57D-04  2.45D+00    7.30008D-02
         6    3.57084D-04  0.00D+00  3.57D-04  2.49D+00    9.12509D-02
         7    3.57618D-04  0.00D+00  3.58D-04  2.52D+00    1.09501D-01
         8    3.58378D-04  0.00D+00  3.58D-04  2.57D+00    1.27751D-01
         9    3.59516D-04  0.00D+00  3.60D-04  2.63D+00    1.46002D-01

 *** THE REQUESTED    9 SOLUTION VECTORS CONVERGED

 Convergence of RSP solution vectors, threshold = 1.00D-03
 ---------------------------------------------------------------
 (dimension of paired reduced space:   70)
 RSP solution vector no.    1; norm of residual   1.48D-04
 RSP solution vector no.    2; norm of residual   1.48D-04
 RSP solution vector no.    3; norm of residual   1.48D-04
 RSP solution vector no.    4; norm of residual   1.47D-04
 RSP solution vector no.    5; norm of residual   1.45D-04
 RSP solution vector no.    6; norm of residual   1.44D-04
 RSP solution vector no.    7; norm of residual   1.42D-04
 RSP solution vector no.    8; norm of residual   1.39D-04
 RSP solution vector no.    9; norm of residual   1.37D-04

 *** RSPCTL MICROITERATIONS CONVERGED


           Final output of second order properties from linear response
           ------------------------------------------------------------


@ Spin symmetry of operators: singlet

 Note that minus the linear response function: - << A; B >>(omega) is printed.
 The results are of quadratic accuracy using Sellers formula.

@ FREQUENCY INDEPENDENT SECOND ORDER PROPERTIES

@ -<< YDIPLEN  ; YDIPLEN  >> =  9.833397743332E+00

@ FREQUENCY DEPENDENT SECOND ORDER PROPERTIES WITH FREQUENCY :

@    a.u.:  1.8250188D-02
@    cm-1:  4.0054531D+03
@    eV  :  4.9661286D-01
@  kJ/mol:  4.7915860D+01
@    nm  :  2.4965964D+03

@ -<< YDIPLEN  ; YDIPLEN  >> =  9.840234671449E+00

@ FREQUENCY DEPENDENT SECOND ORDER PROPERTIES WITH FREQUENCY :

@    a.u.:  3.6500375D-02
@    cm-1:  8.0109063D+03
@    eV  :  9.9322573D-01
@  kJ/mol:  9.5831720D+01
@    nm  :  1.2482982D+03

@ -<< YDIPLEN  ; YDIPLEN  >> =  9.860820933641E+00

@ FREQUENCY DEPENDENT SECOND ORDER PROPERTIES WITH FREQUENCY :

@    a.u.:  5.4750563D-02
@    cm-1:  1.2016359D+04
@    eV  :  1.4898386D+00
@  kJ/mol:  1.4374758D+02
@    nm  :  8.3219881D+02

@ -<< YDIPLEN  ; YDIPLEN  >> =  9.895385351085E+00

@ FREQUENCY DEPENDENT SECOND ORDER PROPERTIES WITH FREQUENCY :

@    a.u.:  7.3000750D-02
@    cm-1:  1.6021813D+04
@    eV  :  1.9864515D+00
@  kJ/mol:  1.9166344D+02
@    nm  :  6.2414911D+02

@ -<< YDIPLEN  ; YDIPLEN  >> =  9.944317405084E+00

@ FREQUENCY DEPENDENT SECOND ORDER PROPERTIES WITH FREQUENCY :

@    a.u.:  9.1250938D-02
@    cm-1:  2.0027266D+04
@    eV  :  2.4830643D+00
@  kJ/mol:  2.3957930D+02
@    nm  :  4.9931929D+02

@ -<< YDIPLEN  ; YDIPLEN  >> =  1.000817996147E+01

@ FREQUENCY DEPENDENT SECOND ORDER PROPERTIES WITH FREQUENCY :

@    a.u.:  1.0950113D-01
@    cm-1:  2.4032719D+04
@    eV  :  2.9796772D+00
@  kJ/mol:  2.8749516D+02
@    nm  :  4.1609940D+02

@ -<< YDIPLEN  ; YDIPLEN  >> =  1.008772825957E+01

@ FREQUENCY DEPENDENT SECOND ORDER PROPERTIES WITH FREQUENCY :

@    a.u.:  1.2775131D-01
@    cm-1:  2.8038172D+04
@    eV  :  3.4762900D+00
@  kJ/mol:  3.3541102D+02
@    nm  :  3.5665663D+02

@ -<< YDIPLEN  ; YDIPLEN  >> =  1.018393650149E+01

@ FREQUENCY DEPENDENT SECOND ORDER PROPERTIES WITH FREQUENCY :

@    a.u.:  1.4600150D-01
@    cm-1:  3.2043625D+04
@    eV  :  3.9729029D+00
@  kJ/mol:  3.8332688D+02
@    nm  :  3.1207455D+02

@ -<< YDIPLEN  ; YDIPLEN  >> =  1.029803402058E+01


 Time used in linear response calculation is     21.74 CPU seconds for symmetry 3
 ----------------------------------------------------------------
 ----- Linear response calculation
 ----- Symmetry of excitation/property operator(s)    5  ( B1u)
 ----------------------------------------------------------------

 Number of excitations of this symmetry            0
 Number of response properties of this symmetry    1
 Number of C6/C8 properties of this symmetry       0


 Perturbation symmetry.     KSYMOP:           5
 Perturbation spin symmetry.TRPLET:           F
 Orbital variables.         KZWOPT:         280
 Configuration variables.   KZCONF:           0
 Total number of variables. KZVAR :         280


 RSPLR -- linear response calculation for symmetry 5  ( B1u)
 RSPLR -- operator label : ZDIPLEN 
 RSPLR -- operator spin  :   0
 RSPLR -- frequencies    :     0.000000  0.018250  0.036500  0.054751  0.073001
                               0.091251  0.109501  0.127751  0.146002



 ---  SOLVING SETS OF LINEAR EQUATIONS FOR LINEAR RESPONSE PROPERTIES ---

 Operator symmetry = 5  ( B1u); triplet =   F

RSPORT:    1 out of    9 new trial vectors linear dependent

 ** RSPCTL MICROITERATION NUMBER    1

       No.  Residual tot.,    conf., and orb.    Bnorm      Frequency 
      ----------------------------------------------------------------
         1    3.24332D+00  0.00D+00  3.24D+00  2.43D+00    0.00000D+00
         2    3.24583D+00  0.00D+00  3.25D+00  2.44D+00    1.82502D-02
         3    3.25337D+00  0.00D+00  3.25D+00  2.45D+00    3.65004D-02
         4    3.26604D+00  0.00D+00  3.27D+00  2.47D+00    5.47506D-02
         5    3.28396D+00  0.00D+00  3.28D+00  2.50D+00    7.30008D-02
         6    3.30734D+00  0.00D+00  3.31D+00  2.54D+00    9.12509D-02
         7    3.33645D+00  0.00D+00  3.34D+00  2.58D+00    1.09501D-01
         8    3.37162D+00  0.00D+00  3.37D+00  2.64D+00    1.27751D-01
         9    3.41329D+00  0.00D+00  3.41D+00  2.71D+00    1.46002D-01

 ** RSPCTL MICROITERATION NUMBER    2

       No.  Residual tot.,    conf., and orb.    Bnorm      Frequency 
      ----------------------------------------------------------------
         1    3.68214D-01  0.00D+00  3.68D-01  3.12D+00    0.00000D+00
         2    3.68742D-01  0.00D+00  3.69D-01  3.13D+00    1.82502D-02
         3    3.70335D-01  0.00D+00  3.70D-01  3.14D+00    3.65004D-02
         4    3.73018D-01  0.00D+00  3.73D-01  3.17D+00    5.47506D-02
         5    3.76836D-01  0.00D+00  3.77D-01  3.22D+00    7.30008D-02
         6    3.81854D-01  0.00D+00  3.82D-01  3.27D+00    9.12509D-02
         7    3.88159D-01  0.00D+00  3.88D-01  3.34D+00    1.09501D-01
         8    3.95865D-01  0.00D+00  3.96D-01  3.42D+00    1.27751D-01
         9    4.05120D-01  0.00D+00  4.05D-01  3.52D+00    1.46002D-01

 ** RSPCTL MICROITERATION NUMBER    3

       No.  Residual tot.,    conf., and orb.    Bnorm      Frequency 
      ----------------------------------------------------------------
         1    3.16233D-02  0.00D+00  3.16D-02  3.13D+00    0.00000D+00
         2    3.16787D-02  0.00D+00  3.17D-02  3.13D+00    1.82502D-02
         3    3.18458D-02  0.00D+00  3.18D-02  3.15D+00    3.65004D-02
         4    3.21271D-02  0.00D+00  3.21D-02  3.18D+00    5.47506D-02
         5    3.25268D-02  0.00D+00  3.25D-02  3.22D+00    7.30008D-02
         6    3.30513D-02  0.00D+00  3.31D-02  3.28D+00    9.12509D-02
         7    3.37085D-02  0.00D+00  3.37D-02  3.35D+00    1.09501D-01
         8    3.45091D-02  0.00D+00  3.45D-02  3.43D+00    1.27751D-01
         9    3.54658D-02  0.00D+00  3.55D-02  3.53D+00    1.46002D-01

 ** RSPCTL MICROITERATION NUMBER    4

       No.  Residual tot.,    conf., and orb.    Bnorm      Frequency 
      ----------------------------------------------------------------
         1    3.53441D-03  0.00D+00  3.53D-03  3.13D+00    0.00000D+00
         2    3.54606D-03  0.00D+00  3.55D-03  3.13D+00    1.82502D-02
         3    3.58126D-03  0.00D+00  3.58D-03  3.15D+00    3.65004D-02
         4    3.64085D-03  0.00D+00  3.64D-03  3.18D+00    5.47506D-02
         5    3.72625D-03  0.00D+00  3.73D-03  3.22D+00    7.30008D-02
         6    3.83956D-03  0.00D+00  3.84D-03  3.28D+00    9.12509D-02
         7    3.98365D-03  0.00D+00  3.98D-03  3.35D+00    1.09501D-01
         8    4.16228D-03  0.00D+00  4.16D-03  3.43D+00    1.27751D-01
         9    4.38035D-03  0.00D+00  4.38D-03  3.53D+00    1.46002D-01

 ** RSPCTL MICROITERATION NUMBER    5

       No.  Residual tot.,    conf., and orb.    Bnorm      Frequency 
      ----------------------------------------------------------------
         1    1.96109D-04  0.00D+00  1.96D-04  3.13D+00    0.00000D+00
         2    1.96847D-04  0.00D+00  1.97D-04  3.13D+00    1.82502D-02
         3    1.99081D-04  0.00D+00  1.99D-04  3.15D+00    3.65004D-02
         4    2.02870D-04  0.00D+00  2.03D-04  3.18D+00    5.47506D-02
         5    2.08314D-04  0.00D+00  2.08D-04  3.22D+00    7.30008D-02
         6    2.15564D-04  0.00D+00  2.16D-04  3.28D+00    9.12509D-02
         7    2.24825D-04  0.00D+00  2.25D-04  3.35D+00    1.09501D-01
         8    2.36371D-04  0.00D+00  2.36D-04  3.43D+00    1.27751D-01
         9    2.50564D-04  0.00D+00  2.51D-04  3.53D+00    1.46002D-01

 *** THE REQUESTED    9 SOLUTION VECTORS CONVERGED

 Convergence of RSP solution vectors, threshold = 1.00D-03
 ---------------------------------------------------------------
 (dimension of paired reduced space:   88)
 RSP solution vector no.    1; norm of residual   6.27D-05
 RSP solution vector no.    2; norm of residual   6.28D-05
 RSP solution vector no.    3; norm of residual   6.32D-05
 RSP solution vector no.    4; norm of residual   6.38D-05
 RSP solution vector no.    5; norm of residual   6.46D-05
 RSP solution vector no.    6; norm of residual   6.57D-05
 RSP solution vector no.    7; norm of residual   6.71D-05
 RSP solution vector no.    8; norm of residual   6.88D-05
 RSP solution vector no.    9; norm of residual   7.09D-05

 *** RSPCTL MICROITERATIONS CONVERGED


           Final output of second order properties from linear response
           ------------------------------------------------------------


@ Spin symmetry of operators: singlet

 Note that minus the linear response function: - << A; B >>(omega) is printed.
 The results are of quadratic accuracy using Sellers formula.

@ FREQUENCY INDEPENDENT SECOND ORDER PROPERTIES

@ -<< ZDIPLEN  ; ZDIPLEN  >> =  1.502783732980E+01

@ FREQUENCY DEPENDENT SECOND ORDER PROPERTIES WITH FREQUENCY :

@    a.u.:  1.8250188D-02
@    cm-1:  4.0054531D+03
@    eV  :  4.9661286D-01
@  kJ/mol:  4.7915860D+01
@    nm  :  2.4965964D+03

@ -<< ZDIPLEN  ; ZDIPLEN  >> =  1.504178794211E+01

@ FREQUENCY DEPENDENT SECOND ORDER PROPERTIES WITH FREQUENCY :

@    a.u.:  3.6500375D-02
@    cm-1:  8.0109063D+03
@    eV  :  9.9322573D-01
@  kJ/mol:  9.5831720D+01
@    nm  :  1.2482982D+03

@ -<< ZDIPLEN  ; ZDIPLEN  >> =  1.508382851449E+01

@ FREQUENCY DEPENDENT SECOND ORDER PROPERTIES WITH FREQUENCY :

@    a.u.:  5.4750563D-02
@    cm-1:  1.2016359D+04
@    eV  :  1.4898386D+00
@  kJ/mol:  1.4374758D+02
@    nm  :  8.3219881D+02

@ -<< ZDIPLEN  ; ZDIPLEN  >> =  1.515453210251E+01

@ FREQUENCY DEPENDENT SECOND ORDER PROPERTIES WITH FREQUENCY :

@    a.u.:  7.3000750D-02
@    cm-1:  1.6021813D+04
@    eV  :  1.9864515D+00
@  kJ/mol:  1.9166344D+02
@    nm  :  6.2414911D+02

@ -<< ZDIPLEN  ; ZDIPLEN  >> =  1.525487710979E+01

@ FREQUENCY DEPENDENT SECOND ORDER PROPERTIES WITH FREQUENCY :

@    a.u.:  9.1250938D-02
@    cm-1:  2.0027266D+04
@    eV  :  2.4830643D+00
@  kJ/mol:  2.3957930D+02
@    nm  :  4.9931929D+02

@ -<< ZDIPLEN  ; ZDIPLEN  >> =  1.538628399050E+01

@ FREQUENCY DEPENDENT SECOND ORDER PROPERTIES WITH FREQUENCY :

@    a.u.:  1.0950113D-01
@    cm-1:  2.4032719D+04
@    eV  :  2.9796772D+00
@  kJ/mol:  2.8749516D+02
@    nm  :  4.1609940D+02

@ -<< ZDIPLEN  ; ZDIPLEN  >> =  1.555067031398E+01

@ FREQUENCY DEPENDENT SECOND ORDER PROPERTIES WITH FREQUENCY :

@    a.u.:  1.2775131D-01
@    cm-1:  2.8038172D+04
@    eV  :  3.4762900D+00
@  kJ/mol:  3.3541102D+02
@    nm  :  3.5665663D+02

@ -<< ZDIPLEN  ; ZDIPLEN  >> =  1.575052839725E+01

@ FREQUENCY DEPENDENT SECOND ORDER PROPERTIES WITH FREQUENCY :

@    a.u.:  1.4600150D-01
@    cm-1:  3.2043625D+04
@    eV  :  3.9729029D+00
@  kJ/mol:  3.8332688D+02
@    nm  :  3.1207455D+02

@ -<< ZDIPLEN  ; ZDIPLEN  >> =  1.598903176871E+01


 Time used in linear response calculation is     27.22 CPU seconds for symmetry 5

  Total CPU  time used in RESPONSE:  1 minute  11 seconds
  Total wall time used in RESPONSE:  1 minute  11 seconds


                   .-------------------------------------------.
                   | End of Dynamic Property Section (RESPONS) |
                   `-------------------------------------------'



 PLTORB knows S,P,D,F,G shells. The basis set contains orbital(s) with higher angular momentum,
 and the writing of MOLPLT file is thus abandoned.

  Total CPU  time used in DALTON:  1 minute  39 seconds
  Total wall time used in DALTON:  1 minute  39 seconds

 
     Date and time (Linux)  : Wed Jan 11 14:17:30 2023
     Host name              : cn020                                   
