

     ************************************************************************
     *************** Dalton - An Electronic Structure Program ***************
     ************************************************************************

    This is output from DALTON release Dalton2020.0 (2020)
         ( Web site: http://daltonprogram.org )

   ----------------------------------------------------------------------------

    NOTE:
     
    Dalton is an experimental code for the evaluation of molecular
    properties using (MC)SCF, DFT, CI, and CC wave functions.
    The authors accept no responsibility for the performance of
    the code or for the correctness of the results.
     
    The code (in whole or part) is provided under a licence and
    is not to be reproduced for further distribution without
    the written permission of the authors or their representatives.
     
    See the home page "http://daltonprogram.org" for further information.
     
    If results obtained with this code are published,
    the appropriate citations would be both of:
     
       K. Aidas, C. Angeli, K. L. Bak, V. Bakken, R. Bast,
       L. Boman, O. Christiansen, R. Cimiraglia, S. Coriani,
       P. Dahle, E. K. Dalskov, U. Ekstroem,
       T. Enevoldsen, J. J. Eriksen, P. Ettenhuber, B. Fernandez,
       L. Ferrighi, H. Fliegl, L. Frediani, K. Hald, A. Halkier,
       C. Haettig, H. Heiberg, T. Helgaker, A. C. Hennum,
       H. Hettema, E. Hjertenaes, S. Hoest, I.-M. Hoeyvik,
       M. F. Iozzi, B. Jansik, H. J. Aa. Jensen, D. Jonsson,
       P. Joergensen, J. Kauczor, S. Kirpekar,
       T. Kjaergaard, W. Klopper, S. Knecht, R. Kobayashi, H. Koch,
       J. Kongsted, A. Krapp, K. Kristensen, A. Ligabue,
       O. B. Lutnaes, J. I. Melo, K. V. Mikkelsen, R. H. Myhre,
       C. Neiss, C. B. Nielsen, P. Norman, J. Olsen,
       J. M. H. Olsen, A. Osted, M. J. Packer, F. Pawlowski,
       T. B. Pedersen, P. F. Provasi, S. Reine, Z. Rinkevicius,
       T. A. Ruden, K. Ruud, V. Rybkin, P. Salek, C. C. M. Samson,
       A. Sanchez de Meras, T. Saue, S. P. A. Sauer,
       B. Schimmelpfennig, K. Sneskov, A. H. Steindal,
       K. O. Sylvester-Hvid, P. R. Taylor, A. M. Teale,
       E. I. Tellgren, D. P. Tew, A. J. Thorvaldsen, L. Thoegersen,
       O. Vahtras, M. A. Watson, D. J. D. Wilson, M. Ziolkowski
       and H. Agren,
       "The Dalton quantum chemistry program system",
       WIREs Comput. Mol. Sci. 2014, 4:269–284 (doi: 10.1002/wcms.1172)
     
    and
     
       Dalton, a molecular electronic structure program,
       Release Dalton2020.0 (2020), see http://daltonprogram.org
   ----------------------------------------------------------------------------

    Authors in alphabetical order (Major contribution(s) in parenthesis):

  Kestutis Aidas,           Vilnius University,           Lithuania   (QM/MM)
  Celestino Angeli,         University of Ferrara,        Italy       (NEVPT2)
  Keld L. Bak,              UNI-C,                        Denmark     (AOSOPPA, non-adiabatic coupling, magnetic properties)
  Vebjoern Bakken,          University of Oslo,           Norway      (DALTON; geometry optimizer, symmetry detection)
  Radovan Bast,             UiT The Arctic U. of Norway,  Norway      (DALTON installation and execution frameworks)
  Pablo Baudin,             University of Valencia,       Spain       (Cholesky excitation energies)
  Linus Boman,              NTNU,                         Norway      (Cholesky decomposition and subsystems)
  Bruno N. Cabral Tenorio,  Technical Univ. of Denmark,   Denmark     (Lanczos-based CC methods)
  Ove Christiansen,         Aarhus University,            Denmark     (CC module)
  Renzo Cimiraglia,         University of Ferrara,        Italy       (NEVPT2)
  Sonia Coriani,            Technical Univ. of Denmark,   Denmark     (CC and RESPONS modules)
  Janusz Cukras,            University of Warsaw,         Poland      (MChD in RESPONS)
  Paal Dahle,               University of Oslo,           Norway      (Parallelization)
  Erik K. Dalskov,          UNI-C,                        Denmark     (SOPPA)
  Thomas Enevoldsen,        Univ. of Southern Denmark,    Denmark     (SOPPA)
  Janus J. Eriksen,         Aarhus University,            Denmark     (Polarizable embedding, TDA)
  Rasmus Faber,             Technical Univ. of Denmark,   Denmark     (Vib.avg. NMR w. SOPPA, parallel AO-SOPPA, CVS-CC and EOMCC)
  Tobias Fahleson,          KTH Stockholm,                Sweden      (Damped cubic response)
  Berta Fernandez,          U. of Santiago de Compostela, Spain       (Doublet spin, ESR in RESPONS)
  Lara Ferrighi,            Aarhus University,            Denmark     (PCM Cubic response)
  Heike Fliegl,             University of Oslo,           Norway      (CCSD(R12))
  Luca Frediani,            UiT The Arctic U. of Norway,  Norway      (PCM)
  Emmanuel Fromager,        Univ. Strasbourg,             France      (MC-srDFT)
  Bin Gao,                  UiT The Arctic U. of Norway,  Norway      (Gen1Int library)
  Andre S. P. Gomes,        CNRS/Universite de Lille,     France      (Frozen density embedding)
  Christof Haettig,         Ruhr-University Bochum,       Germany     (CC module)
  Kasper Hald,              Aarhus University,            Denmark     (CC module)
  Asger Halkier,            Aarhus University,            Denmark     (CC module)
  Frederik Beyer Hansen,    University of Copenhagen,     Denmark     (Parallel AO-SOPPA)
  Erik D. Hedegaard,        Univ. of Southern Denmark,    Denmark     (Polarizable embedding, QM/MM, and MC-srDFT)
  Hanne Heiberg,            University of Oslo,           Norway      (Geometry analysis, selected one-electron integrals)
  Trygve Helgaker,          University of Oslo,           Norway      (DALTON; ABACUS, ERI, DFT modules, London, and much more)
  Alf Christian Hennum,     University of Oslo,           Norway      (Parity violation)
  Hinne Hettema,            University of Auckland,       New Zealand (Quadratic response in RESPONS; SIRIUS supersymmetry)
  Eirik Hjertenaes,         NTNU,                         Norway      (Cholesky decomposition)
  Pi A. B. Haase,           University of Copenhagen,     Denmark     (Triplet AO-SOPPA)
  Maria Francesca Iozzi,    University of Oslo,           Norway      (RPA)
  Christoph Jacob           TU Braunschweig               Germany     (Frozen density embedding)
  Brano Jansik              Technical Univ. of Ostrava    Czech Rep.  (DFT cubic response)
  Hans Joergen Aa. Jensen,  Univ. of Southern Denmark,    Denmark     (DALTON; SIRIUS, RESPONS, ABACUS, MC-srDFT, and much more)
  Dan Jonsson,              UiT The Arctic U. of Norway,  Norway      (Cubic response in RESPONS module)
  Poul Joergensen,          Aarhus University,            Denmark     (RESPONS, ABACUS, and CC modules)
  Maciej Kaminski,          University of Warsaw,         Poland      (CPPh in RESPONS)
  Joanna Kauczor,           Linkoeping University,        Sweden      (Complex polarization propagator (CPP) module)
  Sheela Kirpekar,          Univ. of Southern Denmark,    Denmark     (Mass-velocity & Darwin integrals)
  Erik Kjellgren,           Univ. of Southern Denmark,    Denmark     (MC-srDFT)
  Wim Klopper,              KIT Karlsruhe,                Germany     (R12 code in CC, SIRIUS, and ABACUS modules)
  Stefan Knecht,            ETH Zurich,                   Switzerland (Parallel CI and MCSCF, MC-srDFT)
  Rika Kobayashi,           Australian National Univ.,    Australia   (DIIS in CC, London in MCSCF)
  Henrik Koch,              NTNU,                         Norway      (CC module, Cholesky decomposition)
  Jacob Kongsted,           Univ. of Southern Denmark,    Denmark     (Polarizable embedding, polarizable density embedding, QM/MM)
  Andrea Ligabue,           University of Modena,         Italy       (CTOCD, AOSOPPA)
  Nanna H. List             Univ. of Southern Denmark,    Denmark     (Polarizable embedding)
  Ola B. Lutnaes,           University of Oslo,           Norway      (DFT Hessian)
  Juan I. Melo,             University of Buenos Aires,   Argentina   (LRESC, Relativistic Effects on NMR Shieldings)
  Kurt V. Mikkelsen,        University of Copenhagen,     Denmark     (MC-SCRF and QM/MM)
  Rolf H. Myhre,            NTNU,                         Norway      (Subsystems and CC3)
  Christian Neiss,          Univ. Erlangen-Nuernberg,     Germany     (CCSD(R12))
  Christian B. Nielsen,     University of Copenhagen,     Denmark     (QM/MM)
  Patrick Norman,           KTH Stockholm,                Sweden      (Cubic response and complex frequency response in RESPONS)
  Jeppe Olsen,              Aarhus University,            Denmark     (SIRIUS CI/density modules)
  Jogvan Magnus H. Olsen,   Aarhus University,            Denmark     (Polarizable embedding and polarizable density embedding)
  Anders Osted,             Copenhagen University,        Denmark     (QM/MM)
  Martin J. Packer,         University of Sheffield,      UK          (SOPPA)
  Filip Pawlowski,          Kazimierz Wielki University,  Poland      (CC3)
  Morten N. Pedersen,       Univ. of Southern Denmark,    Denmark     (Polarizable embedding)
  Thomas B. Pedersen,       University of Oslo,           Norway      (Cholesky decomposition)
  Patricio F. Provasi,      University of Northeastern,   Argentina   (Analysis of coupling constants in localized orbitals)
  Peter Reinholdt,          Univ. of Southern Denmark,    Denmark     (Polarizable embedding and polarizable density embedding)
  Zilvinas Rinkevicius,     KTH Stockholm,                Sweden      (open-shell DFT, ESR)
  Elias Rudberg,            KTH Stockholm,                Sweden      (DFT grid and basis info)
  Torgeir A. Ruden,         University of Oslo,           Norway      (Numerical derivatives in ABACUS)
  Kenneth Ruud,             UiT The Arctic U. of Norway,  Norway      (DALTON; ABACUS magnetic properties and much more)
  Pawel Salek,              KTH Stockholm,                Sweden      (DALTON; DFT code)
  Claire C. M. Samson       University of Karlsruhe       Germany     (Boys localization, r12 integrals in ERI)
  Alfredo Sanchez de Meras, University of Valencia,       Spain       (CC module, Cholesky decomposition)
  Trond Saue,               Paul Sabatier University,     France      (direct Fock matrix construction)
  Stephan P. A. Sauer,      University of Copenhagen,     Denmark     (SOPPA(CCSD), SOPPA prop., AOSOPPA, vibrational g-factors)
  Bernd Schimmelpfennig,    Forschungszentrum Karlsruhe,  Germany     (AMFI module)
  Anna K. Schnack-Petersen, University of Copenhagen,     Denmark     (RPA(D) and HRPA(D) properties in AOSOPPA)
  Kristian Sneskov,         Aarhus University,            Denmark     (Polarizable embedding, QM/MM)
  Arnfinn H. Steindal,      UiT The Arctic U. of Norway,  Norway      (parallel QM/MM, polarizable embedding)
  Casper Steinmann,         Aalborg University,           Denmark     (QFIT, polarizable embedding)
  K. O. Sylvester-Hvid,     University of Copenhagen,     Denmark     (MC-SCRF)
  Peter R. Taylor,          VLSCI/Univ. of Melbourne,     Australia   (Symmetry handling ABACUS, integral transformation)
  Andrew M. Teale,          University of Nottingham,     England     (DFT-AC, DFT-D)
  David P. Tew,             University of Bristol,        England     (CCSD(R12))
  Julien Toulouse,          Sorbonne Univ.,               France      (MC-srDFT)
  Olav Vahtras,             KTH Stockholm,                Sweden      (Triplet response, spin-orbit, ESR, TDDFT, open-shell DFT)
  Lucas Visscher,           Vrije Universiteit Amsterdam, Netherlands (Frozen density embedding)
  David J. Wilson,          La Trobe University,          Australia   (DFT Hessian and DFT magnetizabilities)
  Hans Agren,               KTH Stockholm,                Sweden      (SIRIUS module, RESPONS, MC-SCRF solvation)
 --------------------------------------------------------------------------------

     Date and time (Linux)  : Wed Jan 11 14:17:48 2023
     Host name              : cn020                                   

 * Work memory size             :    64000000 =  488.28 megabytes.

 * Directories for basis set searches:
   1) /gpfs/projects/rjh/adrian/fd_compare/dalton/hf/N2/dipole
   2) /gpfs/projects/rjh/adrian/dalton/build/basis


Compilation information
-----------------------

 Who compiled             | ahurtado
 Host                     | sn-mem
 System                   | Linux-3.10.0-1160.24.1.el7.x86_64
 CMake generator          | Unix Makefiles
 Processor                | x86_64
 64-bit integers          | OFF
 MPI                      | ON
 Fortran compiler         | /gpfs/software/intel/oneAPI/2021_4/mpi/2021.4.0/bi
                          | n/mpif90
 Fortran compiler version | GNU Fortran (GCC) 11.2.0
 C compiler               | /gpfs/software/intel/oneAPI/2021_4/mpi/2021.4.0/bi
                          | n/mpicc
 C compiler version       | gcc (GCC) 11.2.0
 C++ compiler             | /gpfs/software/intel/oneAPI/2021_4/mpi/2021.4.0/bi
                          | n/mpicxx
 C++ compiler version     | unknown
 BLAS                     | /gpfs/software/intel/oneAPI/2021_4/mkl/2021.4.0/li
                          | b/intel64/libmkl_gf_lp64.so;/gpfs/software/intel/o
                          | neAPI/2021_4/mkl/2021.4.0/lib/intel64/libmkl_seque
                          | ntial.so;/gpfs/software/intel/oneAPI/2021_4/mkl/20
                          | 21.4.0/lib/intel64/libmkl_core.so;/usr/lib64/libpt
                          | hread.so;/usr/lib64/libm.so
 LAPACK                   | /gpfs/software/intel/oneAPI/2021_4/mkl/2021.4.0/li
                          | b/intel64/libmkl_lapack95_lp64.a;/gpfs/software/in
                          | tel/oneAPI/2021_4/mkl/2021.4.0/lib/intel64/libmkl_
                          | gf_lp64.so
 Static linking           | OFF
 Last Git revision        | 66052b3af5ea7225e31178bf9a8b031913c72190
 Git branch               | (HEAD detached at Dalton2020.0)
 Configuration time       | 2023-01-11 13:33:37.731835

 * MPI parallel run using 20 processes.


   Content of the .dal input file
 ----------------------------------

**DALTON INPUT
.RUN RESPONSE
.DIRECT
**WAVE FUNCTIONS
.HF
**RESPONSE
*LINEAR
.DIPLEN
.FREQUENCIES
9
0.0 0.0182501875 0.036500375 0.0547505625 0.07300075 0.0912509375 0.109501125 0.1277513125 0.1460015
**END OF DALTON INPUT


   Content of the .mol file
 ----------------------------

BASIS
d-aug-cc-pVQZ
blah
blah
Atomtype=1 Atomic
Charge=7 Atoms=2
N_a 0.000000000000 0.000000000000 0.000000000000
N_b 0.000000000000 0.000000000000 2.074320000000


       *******************************************************************
       *********** Output from DALTON general input processing ***********
       *******************************************************************

 --------------------------------------------------------------------------------
   Overall default print level:    0
   Print level for DALTON.STAT:    1

    Parallel calculation using MPI
    AO-direct calculation (in sections where implemented)
    HERMIT 1- and 2-electron integral sections will be executed
    "Old" integral transformation used (limited to max 255 basis functions)
    Wave function sections will be executed (SIRIUS module)
    Dynamic molecular response properties section will be executed (RESPONSE module)
 --------------------------------------------------------------------------------


   ****************************************************************************
   *************** Output of molecule and basis set information ***************
   ****************************************************************************


    The two title cards from your ".mol" input:
    ------------------------------------------------------------------------
 1: blah                                                                    
 2: blah                                                                    
    ------------------------------------------------------------------------

  Atomic type no.    1
  --------------------
  Nuclear charge:   7.00000
  Number of symmetry independent centers:    2
  Number of basis sets to read;    2
  Basis set file used for this atomic type with Z =   7 :
     "/gpfs/projects/rjh/adrian/dalton/build/basis/aug-cc-pVQZ"


                      SYMADD: Requested addition of symmetry
                      --------------------------------------

 Symmetry test threshold:  5.00E-06

@   The molecule is centered at center of mass and rotated
@   so principal axes of inertia are along coordinate axes.

 Symmetry class found: D(oo,h)        

 Symmetry Independent Centres             
 ----------------------------
N_b    7 :      0.00000000     0.00000000     1.03716000  Isotope  1

 The following symmetry elements were found:   X  Y  Z  


                         SYMGRP: Point group information
                         -------------------------------

@    Full point group is: D(oo,h)        
@    Represented as:      D2h

@  * The irrep name for each symmetry:    1: Ag     2: B3u    3: B2u    4: B1g    5: B1u    6: B2g    7: B3g    8: Au 


   * The point group was generated by:

      Reflection in the yz-plane
      Reflection in the xz-plane
      Reflection in the xy-plane

   * Group multiplication table

        |  E   C2z  C2y  C2x   i   Oxy  Oxz  Oyz
   -----+----------------------------------------
     E  |  E   C2z  C2y  C2x   i   Oxy  Oxz  Oyz
    C2z | C2z   E   C2x  C2y  Oxy   i   Oyz  Oxz
    C2y | C2y  C2x   E   C2z  Oxz  Oyz   i   Oxy
    C2x | C2x  C2y  C2z   E   Oyz  Oxz  Oxy   i 
     i  |  i   Oxy  Oxz  Oyz   E   C2z  C2y  C2x
    Oxy | Oxy   i   Oyz  Oxz  C2z   E   C2x  C2y
    Oxz | Oxz  Oyz   i   Oxy  C2y  C2x   E   C2z
    Oyz | Oyz  Oxz  Oxy   i   C2x  C2y  C2z   E 

   * Character table

        |  E   C2z  C2y  C2x   i   Oxy  Oxz  Oyz
   -----+----------------------------------------
    Ag  |   1    1    1    1    1    1    1    1
    B3u |   1   -1   -1    1   -1    1    1   -1
    B2u |   1   -1    1   -1   -1    1   -1    1
    B1g |   1    1   -1   -1    1    1   -1   -1
    B1u |   1    1   -1   -1   -1   -1    1    1
    B2g |   1   -1    1   -1    1   -1    1   -1
    B3g |   1   -1   -1    1    1   -1   -1    1
    Au  |   1    1    1    1   -1   -1   -1   -1

   * Direct product table

        | Ag   B3u  B2u  B1g  B1u  B2g  B3g  Au 
   -----+----------------------------------------
    Ag  | Ag   B3u  B2u  B1g  B1u  B2g  B3g  Au 
    B3u | B3u  Ag   B1g  B2u  B2g  B1u  Au   B3g
    B2u | B2u  B1g  Ag   B3u  B3g  Au   B1u  B2g
    B1g | B1g  B2u  B3u  Ag   Au   B3g  B2g  B1u
    B1u | B1u  B2g  B3g  Au   Ag   B3u  B2u  B1g
    B2g | B2g  B1u  Au   B3g  B3u  Ag   B1g  B2u
    B3g | B3g  Au   B1u  B2g  B2u  B1g  Ag   B3u
    Au  | Au   B3g  B2g  B1u  B1g  B2u  B3u  Ag 


                                 Isotopic Masses
                                 ---------------

                           N_b _1     14.003074
                           N_b _2     14.003074

                       Total mass:    28.006148 amu
                       Natural abundance:  99.261 %

 Center-of-mass coordinates (a.u.):    0.000000    0.000000    0.000000
 Center-of-mass coordinates (Angs):    0.000000    0.000000    0.000000


  Atoms and basis sets
  --------------------

  Number of atom types :    1
  Total number of atoms:    2

  Basis set used is "d-aug-cc-pVQZ" from the basis set library.

  label    atoms   charge   prim   cont     basis
  ----------------------------------------------------------------------
  N_          2    7.0000   118   105      [14s8p5d4f3g|7s6p5d4f3g]                           
  ----------------------------------------------------------------------
  total:      2   14.0000   236   210
  ----------------------------------------------------------------------
  Spherical harmonic basis used.

  Threshold for neglecting AO integrals:  1.00D-12


  Cartesian Coordinates (a.u.)
  ----------------------------

  Total number of coordinates:    6
  N_b / 1 :     1  x   0.0000000000    2  y   0.0000000000    3  z   1.0371600000
  N_b / 2 :     4  x   0.0000000000    5  y   0.0000000000    6  z  -1.0371600000


  Symmetry Coordinates
  --------------------

  Number of coordinates in each symmetry:     1    1    1    0    1    1    1    0

  Symmetry  Ag  ( 1)

    1   N_b   z    [  3  -    6 ]/2

  Symmetry  B3u ( 2)

    2   N_b   x    [  1  +    4 ]/2

  Symmetry  B2u ( 3)

    3   N_b   y    [  2  +    5 ]/2

  Symmetry  B1u ( 5)

    4   N_b   z    [  3  +    6 ]/2

  Symmetry  B2g ( 6)

    5   N_b   x    [  1  -    4 ]/2

  Symmetry  B3g ( 7)

    6   N_b   y    [  2  -    5 ]/2


   Interatomic separations (in Angstrom):
   --------------------------------------

            N_b _1      N_b _2
            ------      ------
 N_b _1:    0.000000
 N_b _2:    1.097683    0.000000


  Max    interatomic separation is    1.0977 Angstrom (    2.0743 Bohr)
  between atoms    2 and    1, "N_b _2" and "N_b _1".

  Min YX interatomic separation is    1.0977 Angstrom (    2.0743 Bohr)


  Bond distances (Angstrom):
  --------------------------

                  atom 1     atom 2       distance
                  ------     ------       --------
  bond distance:  N_b _2     N_b _1       1.097683




 Principal moments of inertia (u*A**2) and principal axes
 --------------------------------------------------------

   IA       0.000000          0.000000    0.000000    1.000000
   IB       8.436206          0.000000    1.000000    0.000000
   IC       8.436206          1.000000    0.000000    0.000000


 Rotational constants
 --------------------

@    The molecule is linear.

               B =        59905.96 MHz     (    1.998248 cm-1)


@  Nuclear repulsion energy :   23.622199082109 Hartree


  Symmetry Orbitals
  -----------------

  Number of orbitals in each symmetry:          40   25   25   15   40   25   25   15


  Symmetry  Ag ( 1)

    1     N_b      1s         1 +    2
    2     N_b      1s         3 +    4
    3     N_b      1s         5 +    6
    4     N_b      1s         7 +    8
    5     N_b      1s         9 +   10
    6     N_b      1s        11 +   12
    7     N_b      1s        13 +   14
    8     N_b      2pz       19 -   20
    9     N_b      2pz       25 -   26
   10     N_b      2pz       31 -   32
   11     N_b      2pz       37 -   38
   12     N_b      2pz       43 -   44
   13     N_b      2pz       49 -   50
   14     N_b      3d0       55 +   56
   15     N_b      3d2+      59 +   60
   16     N_b      3d0       65 +   66
   17     N_b      3d2+      69 +   70
   18     N_b      3d0       75 +   76
   19     N_b      3d2+      79 +   80
   20     N_b      3d0       85 +   86
   21     N_b      3d2+      89 +   90
   22     N_b      3d0       95 +   96
   23     N_b      3d2+      99 +  100
   24     N_b      4f0      107 -  108
   25     N_b      4f2+     111 -  112
   26     N_b      4f0      121 -  122
   27     N_b      4f2+     125 -  126
   28     N_b      4f0      135 -  136
   29     N_b      4f2+     139 -  140
   30     N_b      4f0      149 -  150
   31     N_b      4f2+     153 -  154
   32     N_b      5g0      165 +  166
   33     N_b      5g2+     169 +  170
   34     N_b      5g4+     173 +  174
   35     N_b      5g0      183 +  184
   36     N_b      5g2+     187 +  188
   37     N_b      5g4+     191 +  192
   38     N_b      5g0      201 +  202
   39     N_b      5g2+     205 +  206
   40     N_b      5g4+     209 +  210


  Symmetry  B3u( 2)

   41     N_b      2px       15 +   16
   42     N_b      2px       21 +   22
   43     N_b      2px       27 +   28
   44     N_b      2px       33 +   34
   45     N_b      2px       39 +   40
   46     N_b      2px       45 +   46
   47     N_b      3d1+      57 -   58
   48     N_b      3d1+      67 -   68
   49     N_b      3d1+      77 -   78
   50     N_b      3d1+      87 -   88
   51     N_b      3d1+      97 -   98
   52     N_b      4f1+     109 +  110
   53     N_b      4f3+     113 +  114
   54     N_b      4f1+     123 +  124
   55     N_b      4f3+     127 +  128
   56     N_b      4f1+     137 +  138
   57     N_b      4f3+     141 +  142
   58     N_b      4f1+     151 +  152
   59     N_b      4f3+     155 +  156
   60     N_b      5g1+     167 -  168
   61     N_b      5g3+     171 -  172
   62     N_b      5g1+     185 -  186
   63     N_b      5g3+     189 -  190
   64     N_b      5g1+     203 -  204
   65     N_b      5g3+     207 -  208


  Symmetry  B2u( 3)

   66     N_b      2py       17 +   18
   67     N_b      2py       23 +   24
   68     N_b      2py       29 +   30
   69     N_b      2py       35 +   36
   70     N_b      2py       41 +   42
   71     N_b      2py       47 +   48
   72     N_b      3d1-      53 -   54
   73     N_b      3d1-      63 -   64
   74     N_b      3d1-      73 -   74
   75     N_b      3d1-      83 -   84
   76     N_b      3d1-      93 -   94
   77     N_b      4f3-     101 +  102
   78     N_b      4f1-     105 +  106
   79     N_b      4f3-     115 +  116
   80     N_b      4f1-     119 +  120
   81     N_b      4f3-     129 +  130
   82     N_b      4f1-     133 +  134
   83     N_b      4f3-     143 +  144
   84     N_b      4f1-     147 +  148
   85     N_b      5g3-     159 -  160
   86     N_b      5g1-     163 -  164
   87     N_b      5g3-     177 -  178
   88     N_b      5g1-     181 -  182
   89     N_b      5g3-     195 -  196
   90     N_b      5g1-     199 -  200


  Symmetry  B1g( 4)

   91     N_b      3d2-      51 +   52
   92     N_b      3d2-      61 +   62
   93     N_b      3d2-      71 +   72
   94     N_b      3d2-      81 +   82
   95     N_b      3d2-      91 +   92
   96     N_b      4f2-     103 -  104
   97     N_b      4f2-     117 -  118
   98     N_b      4f2-     131 -  132
   99     N_b      4f2-     145 -  146
  100     N_b      5g4-     157 +  158
  101     N_b      5g2-     161 +  162
  102     N_b      5g4-     175 +  176
  103     N_b      5g2-     179 +  180
  104     N_b      5g4-     193 +  194
  105     N_b      5g2-     197 +  198


  Symmetry  B1u( 5)

  106     N_b      1s         1 -    2
  107     N_b      1s         3 -    4
  108     N_b      1s         5 -    6
  109     N_b      1s         7 -    8
  110     N_b      1s         9 -   10
  111     N_b      1s        11 -   12
  112     N_b      1s        13 -   14
  113     N_b      2pz       19 +   20
  114     N_b      2pz       25 +   26
  115     N_b      2pz       31 +   32
  116     N_b      2pz       37 +   38
  117     N_b      2pz       43 +   44
  118     N_b      2pz       49 +   50
  119     N_b      3d0       55 -   56
  120     N_b      3d2+      59 -   60
  121     N_b      3d0       65 -   66
  122     N_b      3d2+      69 -   70
  123     N_b      3d0       75 -   76
  124     N_b      3d2+      79 -   80
  125     N_b      3d0       85 -   86
  126     N_b      3d2+      89 -   90
  127     N_b      3d0       95 -   96
  128     N_b      3d2+      99 -  100
  129     N_b      4f0      107 +  108
  130     N_b      4f2+     111 +  112
  131     N_b      4f0      121 +  122
  132     N_b      4f2+     125 +  126
  133     N_b      4f0      135 +  136
  134     N_b      4f2+     139 +  140
  135     N_b      4f0      149 +  150
  136     N_b      4f2+     153 +  154
  137     N_b      5g0      165 -  166
  138     N_b      5g2+     169 -  170
  139     N_b      5g4+     173 -  174
  140     N_b      5g0      183 -  184
  141     N_b      5g2+     187 -  188
  142     N_b      5g4+     191 -  192
  143     N_b      5g0      201 -  202
  144     N_b      5g2+     205 -  206
  145     N_b      5g4+     209 -  210


  Symmetry  B2g( 6)

  146     N_b      2px       15 -   16
  147     N_b      2px       21 -   22
  148     N_b      2px       27 -   28
  149     N_b      2px       33 -   34
  150     N_b      2px       39 -   40
  151     N_b      2px       45 -   46
  152     N_b      3d1+      57 +   58
  153     N_b      3d1+      67 +   68
  154     N_b      3d1+      77 +   78
  155     N_b      3d1+      87 +   88
  156     N_b      3d1+      97 +   98
  157     N_b      4f1+     109 -  110
  158     N_b      4f3+     113 -  114
  159     N_b      4f1+     123 -  124
  160     N_b      4f3+     127 -  128
  161     N_b      4f1+     137 -  138
  162     N_b      4f3+     141 -  142
  163     N_b      4f1+     151 -  152
  164     N_b      4f3+     155 -  156
  165     N_b      5g1+     167 +  168
  166     N_b      5g3+     171 +  172
  167     N_b      5g1+     185 +  186
  168     N_b      5g3+     189 +  190
  169     N_b      5g1+     203 +  204
  170     N_b      5g3+     207 +  208


  Symmetry  B3g( 7)

  171     N_b      2py       17 -   18
  172     N_b      2py       23 -   24
  173     N_b      2py       29 -   30
  174     N_b      2py       35 -   36
  175     N_b      2py       41 -   42
  176     N_b      2py       47 -   48
  177     N_b      3d1-      53 +   54
  178     N_b      3d1-      63 +   64
  179     N_b      3d1-      73 +   74
  180     N_b      3d1-      83 +   84
  181     N_b      3d1-      93 +   94
  182     N_b      4f3-     101 -  102
  183     N_b      4f1-     105 -  106
  184     N_b      4f3-     115 -  116
  185     N_b      4f1-     119 -  120
  186     N_b      4f3-     129 -  130
  187     N_b      4f1-     133 -  134
  188     N_b      4f3-     143 -  144
  189     N_b      4f1-     147 -  148
  190     N_b      5g3-     159 +  160
  191     N_b      5g1-     163 +  164
  192     N_b      5g3-     177 +  178
  193     N_b      5g1-     181 +  182
  194     N_b      5g3-     195 +  196
  195     N_b      5g1-     199 +  200


  Symmetry  Au ( 8)

  196     N_b      3d2-      51 -   52
  197     N_b      3d2-      61 -   62
  198     N_b      3d2-      71 -   72
  199     N_b      3d2-      81 -   82
  200     N_b      3d2-      91 -   92
  201     N_b      4f2-     103 +  104
  202     N_b      4f2-     117 +  118
  203     N_b      4f2-     131 +  132
  204     N_b      4f2-     145 +  146
  205     N_b      5g4-     157 -  158
  206     N_b      5g2-     161 -  162
  207     N_b      5g4-     175 -  176
  208     N_b      5g2-     179 -  180
  209     N_b      5g4-     193 -  194
  210     N_b      5g2-     197 -  198

  Symmetries of electric field:  B3u(2)  B2u(3)  B1u(5)

  Symmetries of magnetic field:  B3g(7)  B2g(6)  B1g(4)


                     .---------------------------------------.
                     | Starting in Integral Section (HERMIT) |
                     `---------------------------------------'



 ***************************************************************************************
 ****************** Output from **INTEGRALS input processing (HERMIT) ******************
 ***************************************************************************************


 - Using defaults, no **INTEGRALS input found

 Default print level:        1

 Calculation of one-electron Hamiltonian integrals.

 Center of mass  (bohr):      0.000000000000      0.000000000000      0.000000000000
 Operator center (bohr):      0.000000000000      0.000000000000      0.000000000000
 Gauge origin    (bohr):      0.000000000000      0.000000000000      0.000000000000
 Dipole origin   (bohr):      0.000000000000      0.000000000000      0.000000000000


     ************************************************************************
     ************************** Output from HERINT **************************
     ************************************************************************



                      Nuclear contribution to dipole moments
                      --------------------------------------

                    All dipole components are zero by symmetry


  Time used in GABGEN     is       0.28 seconds
  Total CPU  time used in HERMIT:   0.40 seconds
  Total wall time used in HERMIT:   0.41 seconds


                        .----------------------------------.
                        | End of Integral Section (HERMIT) |
                        `----------------------------------'



                   .--------------------------------------------.
                   | Starting in Wave Function Section (SIRIUS) |
                   `--------------------------------------------'


 *** Output from Huckel module :

     Using EWMO model:          F
     Using EHT  model:          T
     Number of Huckel orbitals each symmetry:    3    1    1    0    3    1    1    0

 Huckel EHT eigenvalues for symmetry :  1
          -15.703205      -1.363953      -0.476809

 Huckel EHT eigenvalues for symmetry :  2
           -0.648566

 Huckel EHT eigenvalues for symmetry :  3
           -0.648566

 Huckel EHT eigenvalues for symmetry :  5
          -15.694742      -0.814285      -0.224605

 Huckel EHT eigenvalues for symmetry :  6
           -0.368834

 Huckel EHT eigenvalues for symmetry :  7
           -0.368834

 **********************************************************************
 *SIRIUS* a direct, restricted step, second order MCSCF program       *
 **********************************************************************

 
     Date and time (Linux)  : Wed Jan 11 14:17:48 2023
     Host name              : cn020                                   

 Title lines from ".mol" input file:
     blah                                                                    
     blah                                                                    

 Print level on unit LUPRI =   2 is   0
 Print level on unit LUW4  =   2 is   5

@    Restricted, closed shell Hartree-Fock calculation.

@    Time-dependent Hartree-Fock calculation (random phase approximation).
 Fock matrices are calculated directly and in parallel without use of integrals on disk.

 Initial molecular orbitals are obtained according to
 ".MOSTART EHT   " input option

     Wave function specification
     ============================
@    Wave function type        --- HF ---
@    Number of closed shell electrons          14
@    Number of electrons in active shells       0
@    Total charge of the molecule               0

@    Spin multiplicity and 2 M_S                1         0
@    Total number of symmetries                 8 (point group: D2h)
@    Reference state symmetry                   1 (irrep name : Ag )

     Orbital specifications
     ======================
@    Abelian symmetry species          All |    1    2    3    4    5    6    7    8
@                                          |  Ag   B3u  B2u  B1g  B1u  B2g  B3g  Au 
                                       --- |  ---  ---  ---  ---  ---  ---  ---  ---
@    Total number of orbitals          210 |   40   25   25   15   40   25   25   15
@    Number of basis functions         210 |   40   25   25   15   40   25   25   15

      ** Automatic occupation of RHF orbitals **

      -- Initial occupation of symmetries is determined from extended Huckel guess.           
      -- Initial occupation of symmetries is :
@    Occupied SCF orbitals               7 |    3    1    1    0    2    0    0    0

     Maximum number of Fock   iterations      0
     Maximum number of DIIS   iterations     60
     Maximum number of QC-SCF iterations     60
     Threshold for SCF convergence     1.00D-05


 ***********************************************
 ***** DIIS acceleration of SCF iterations *****
 ***********************************************

 C1-DIIS algorithm; max error vectors =    8

 Automatic occupation of symmetries with  14 electrons.

 Iter     Total energy    Error norm  Delta(E)    SCF occupation
 -----------------------------------------------------------------------------
   1  Screening settings (-IFTHRS, JTDIIS, DIFDEN, times)   -7    1    T  2.03D+00  2.02D+00
@  1  -108.651582236       3.02D+00  -1.09D+02     3   1   1   0   2   0   0   0
      Virial theorem: -V/T =      2.010054
@    MULPOP   N_b _1 -0.00; N_b _2 -0.00; 
   1  Level shift: doubly occupied orbital energies shifted by -2.00D-01
 -----------------------------------------------------------------------------
   2  Screening settings (-IFTHRS, JTDIIS, DIFDEN, times)   -7    2    T  1.93D+00  1.93D+00
@  2  -108.975618366       6.18D-01  -3.24D-01     3   1   1   0   2   0   0   0
      Virial theorem: -V/T =      1.996134
@    MULPOP   N_b _1  0.00; N_b _2  0.00; 
   2  Level shift: doubly occupied orbital energies shifted by -5.00D-02
 -----------------------------------------------------------------------------
   3  Screening settings (-IFTHRS, JTDIIS, DIFDEN, times)   -7    3    T  1.93D+00  1.93D+00
@  3  -108.990342318       1.17D-01  -1.47D-02     3   1   1   0   2   0   0   0
      Virial theorem: -V/T =      2.002472
@    MULPOP   N_b _1  0.00; N_b _2  0.00; 
   3  Level shift: doubly occupied orbital energies shifted by -1.25D-02
 -----------------------------------------------------------------------------
   4  Screening settings (-IFTHRS, JTDIIS, DIFDEN, times)  -11    4    F  1.86D+00  1.86D+00
@  4  -108.991508698       2.58D-02  -1.17D-03     3   1   1   0   2   0   0   0
      Virial theorem: -V/T =      2.001906
@    MULPOP   N_b _1  0.00; N_b _2  0.00; 
 -----------------------------------------------------------------------------
   5  Screening settings (-IFTHRS, JTDIIS, DIFDEN, times)  -11    5    T  1.96D+00  1.96D+00
@  5  -108.991577516       3.87D-03  -6.88D-05     3   1   1   0   2   0   0   0
      Virial theorem: -V/T =      2.002120
@    MULPOP   N_b _1 -0.00; N_b _2 -0.00; 
 -----------------------------------------------------------------------------
   6  Screening settings (-IFTHRS, JTDIIS, DIFDEN, times)  -11    6    T  1.94D+00  1.95D+00
@  6  -108.991579411       4.22D-04  -1.89D-06     3   1   1   0   2   0   0   0
      Virial theorem: -V/T =      2.002106
@    MULPOP   N_b _1  0.00; N_b _2  0.00; 
 -----------------------------------------------------------------------------
   7  Screening settings (-IFTHRS, JTDIIS, DIFDEN, times)  -11    7    T  1.77D+00  1.77D+00
@  7  -108.991579430       4.33D-05  -1.93D-08     3   1   1   0   2   0   0   0
      Virial theorem: -V/T =      2.002110
@    MULPOP   N_b _1 -0.00; N_b _2 -0.00; 
 -----------------------------------------------------------------------------
   8  Screening settings (-IFTHRS, JTDIIS, DIFDEN, times)  -11    8    T  1.85D+00  1.85D+00
@  8  -108.991579430       6.50D-06  -2.18D-10     3   1   1   0   2   0   0   0

@ *** DIIS converged in   8 iterations !
@     Converged SCF energy, gradient:   -108.991579430323    6.50D-06
    - total time used in SIRFCK :              0.00 seconds


 *** SCF orbital energy analysis ***

 Only the 20 lowest virtual orbital energies printed in each symmetry.

 Number of electrons :   14
 Orbital occupations :    3    1    1    0    2    0    0    0

 Sym       Hartree-Fock orbital energies

1 Ag    -15.68360605    -1.47127783    -0.63448133     0.02742737     0.04207436
          0.11604080     0.11800482     0.16070853     0.26459079     0.38974551
          0.43143442     0.44061675     0.45186489     0.78875918     0.88692211
          1.05106223     1.08171355     1.16279880     1.17044967     1.61595195
          1.76543044     1.81503434     2.85757629

2 B3u    -0.61423342     0.03106453     0.13650283     0.14857065     0.35870598
          0.36831688     0.52555250     0.71757460     1.11731717     1.12561383
          1.28847813     1.29485213     1.91046851     2.21749484     3.01079448
          3.17371688     3.42811237     3.61519665     4.92240733     8.00856493
          8.09293689

3 B2u    -0.61423342     0.03106453     0.13650283     0.14857065     0.35870598
          0.36831688     0.52555250     0.71757460     1.11731717     1.12561383
          1.28847813     1.29485213     1.91046851     2.21749484     3.01079448
          3.17371688     3.42811237     3.61519665     4.92240733     8.00856493
          8.09293689

4 B1g     0.11604080     0.38974551     0.44061675     1.05106223     1.08171355
          1.17044967     1.76543044     2.93245036     3.09156401     3.27614342
          4.08242542     7.97692565     8.30227833     9.39146050     9.64703861

5 B1u   -15.68006664    -0.77931026     0.02192275     0.07176741     0.14003017
          0.14109097     0.17026466     0.35781635     0.36642944     0.36869457
          0.63649199     0.67814898     0.72194597     0.98865479     1.19470771
          1.25604922     1.29833789     1.31663554     1.34206881     1.62789982
          2.14804590     2.30603711

6 B2g     0.03912426     0.10681601     0.15849611     0.28121672     0.43774599
          0.44113973     0.55200360     1.03872198     1.15916456     1.16645752
          1.71410207     1.76031445     1.93585945     3.10421001     3.25376733
          3.48885818     3.84137032     4.17886727     5.88009660     8.47283314

7 B3g     0.03912426     0.10681601     0.15849611     0.28121672     0.43774599
          0.44113973     0.55200360     1.03872198     1.15916456     1.16645752
          1.71410207     1.76031445     1.93585945     3.10421001     3.25376733
          3.48885818     3.84137032     4.17886727     5.88009660     8.47283314

8 Au      0.14003017     0.36642944     0.67814898     1.19470771     1.29833789
          1.31663554     2.14804590     3.14289092     3.48745459     4.06664654
          5.16681990     8.58728089     9.12742948    10.41462032    10.66874231

    E(LUMO) :     0.02192275 au (symmetry 5)
  - E(HOMO) :    -0.61423342 au (symmetry 3)
  ------------------------------------------
    gap     :     0.63615617 au

 --- Writing SIRIFC interface file

 CPU and wall time for SCF :      15.287      15.303


                       .-----------------------------------.
                       | --- Final results from SIRIUS --- |
                       `-----------------------------------'


@    Spin multiplicity:           1
@    Spatial symmetry:            1 ( irrep  Ag  in D2h )
@    Total charge of molecule:    0

@    Final HF energy:            -108.991579430323                 
@    Nuclear repulsion:            23.622199082109
@    Electronic energy:          -132.613778512432

@    Final gradient norm:           0.000006500190

 
     Date and time (Linux)  : Wed Jan 11 14:18:04 2023
     Host name              : cn020                                   

File label for MO orbitals:  11Jan23   FOCKDIIS

 (Only coefficients > 0.0100 are printed.)

 Molecular orbitals for symmetry species 1  (Ag )
 ------------------------------------------------

    Orbital         1        2        3        4        5        6        7
   1 N_b :1s     0.7071  -0.0069   0.0015  -0.0008   0.0014  -0.0000   0.0026
   2 N_b :1s     0.0013   0.6686   0.2314   0.0400   0.0395  -0.0000  -0.0499
   4 N_b :1s    -0.0023  -0.1218   0.0759   0.1558   0.2833   0.0000   0.4838
   5 N_b :1s     0.0002  -0.1231   0.1516   0.0959   0.6696   0.0000   1.4761
   6 N_b :1s    -0.0000   0.0030   0.0172   0.5633   2.1047   0.0000   4.0525
   7 N_b :1s     0.0001   0.0027  -0.0069  -1.0415  -1.0824  -0.0000  -2.1359
   8 N_b :2pz   -0.0068  -0.3419   0.6973   0.0536   0.0351  -0.0000  -0.0102
   9 N_b :2pz    0.0026   0.0076  -0.0080  -0.0124  -0.0195   0.0000  -0.0311
  10 N_b :2pz    0.0024   0.0539  -0.0606  -0.0003  -0.0234   0.0000  -0.0595
  11 N_b :2pz    0.0002   0.0305  -0.0182   0.2181   0.7158   0.0000   1.4429
  12 N_b :2pz   -0.0001  -0.0225   0.0573   0.9472   4.9610   0.0000  10.7772
  13 N_b :2pz    0.0001  -0.0013   0.0053  -1.7723   4.6232  -0.0000   3.9928
  16 N_b :3d0    0.0004   0.0220  -0.0199   0.0006   0.0066   0.0000   0.0104
  18 N_b :3d0    0.0008   0.0321  -0.0235  -0.0387  -0.1082  -0.0000  -0.2244
  19 N_b :3d2+   0.0000  -0.0000  -0.0000  -0.0000  -0.0000  -0.0442   0.0000
  20 N_b :3d0    0.0006   0.0166  -0.0269  -0.1685  -0.5184  -0.0000  -1.0703
  21 N_b :3d2+  -0.0000   0.0000   0.0000   0.0000   0.0000   0.1292  -0.0000
  22 N_b :3d0   -0.0001   0.0037  -0.0105  -0.1108  -1.4183   0.0000  -3.2863
  23 N_b :3d2+   0.0000  -0.0000  -0.0000  -0.0000  -0.0000  -0.5714   0.0000
  26 N_b :4f0   -0.0003  -0.0088   0.0059   0.0057   0.0127   0.0000   0.0238
  28 N_b :4f0   -0.0002  -0.0076   0.0056   0.0251   0.0620   0.0000   0.1217
  30 N_b :4f0   -0.0001  -0.0018   0.0043   0.0228   0.1167   0.0000   0.2466
  31 N_b :4f2+   0.0000  -0.0000   0.0000   0.0000   0.0000   0.0196  -0.0000
  38 N_b :5g0    0.0000   0.0013  -0.0017  -0.0074  -0.0189  -0.0000  -0.0327

    Orbital         8        9       10       11       12       13
   1 N_b :1s    -0.0047   0.0168  -0.0000  -0.0074  -0.0000   0.0031
   2 N_b :1s    -0.1174   0.2234  -0.0000  -0.0323  -0.0000   0.0151
   3 N_b :1s    -0.0198   0.0375  -0.0000  -0.0133  -0.0000  -0.0230
   4 N_b :1s     0.8391   0.5305   0.0000  -1.6056   0.0000   1.3900
   5 N_b :1s     1.0510   3.4033   0.0000  -3.9527  -0.0000   4.1960
   6 N_b :1s     3.1114   2.9309   0.0000  -0.7710   0.0000   1.3744
   7 N_b :1s    -1.9161  -2.1177  -0.0000   1.4316  -0.0000  -1.7005
   8 N_b :2pz   -0.0989   0.0510  -0.0000  -0.1805  -0.0000   0.1532
   9 N_b :2pz   -0.0629  -0.0300   0.0000   0.1161   0.0000  -0.0751
  10 N_b :2pz   -0.0218  -0.1297   0.0000   0.1730   0.0000  -0.1477
  11 N_b :2pz    1.6314   2.5067   0.0000  -4.1344   0.0000   4.1464
  12 N_b :2pz    8.6732  14.7961   0.0000 -11.0002   0.0000  12.3812
  13 N_b :2pz    0.5241   2.5582  -0.0000  -0.5867   0.0000   1.3726
  16 N_b :3d0    0.0137   0.0364   0.0000  -0.0245   0.0000   0.0184
  17 N_b :3d2+  -0.0000   0.0000   0.0466  -0.0000  -0.0195   0.0000
  18 N_b :3d0   -0.2772  -0.3255  -0.0000   0.7321  -0.0000  -0.5294
  19 N_b :3d2+   0.0000  -0.0000  -0.0814   0.0000   0.0963  -0.0000
  20 N_b :3d0   -1.3041  -1.7100  -0.0000   3.5364  -0.0000  -2.6280
  21 N_b :3d2+  -0.0000   0.0000   0.7665  -0.0000   0.4226   0.0000
  22 N_b :3d0   -1.6032  -3.6270   0.0000   1.9202  -0.0000  -2.6008
  23 N_b :3d2+   0.0000  -0.0000  -0.3492   0.0000  -0.0791  -0.0000
  26 N_b :4f0    0.0347   0.0252   0.0000  -0.0595   0.0000   0.0715
  27 N_b :4f2+  -0.0000   0.0000  -0.0051  -0.0000   0.0217   0.0000
  28 N_b :4f0    0.1693   0.1899   0.0000  -0.4648   0.0000   0.2633
  29 N_b :4f2+   0.0000  -0.0000  -0.0076   0.0000  -0.0399  -0.0000
  30 N_b :4f0    0.1987   0.3055   0.0000   0.3673   0.0000   1.4780
  31 N_b :4f2+  -0.0000   0.0000   0.1657  -0.0000   1.5045   0.0000
  32 N_b :5g0   -0.0029  -0.0028   0.0000   0.0018   0.0000  -0.0108
  35 N_b :5g0   -0.0126  -0.0110  -0.0000   0.0536  -0.0000   0.0087
  36 N_b :5g2+  -0.0000   0.0000   0.0134  -0.0000   0.0391   0.0000
  38 N_b :5g0   -0.0408  -0.0206   0.0000  -0.0706  -0.0000  -0.2200
  39 N_b :5g2+  -0.0000   0.0000  -0.0221  -0.0000  -0.2444   0.0000

 Molecular orbitals for symmetry species 2  (B3u)
 ------------------------------------------------

    Orbital         1        2        3        4        5        6        7
   1 N_b :2px    0.6326   0.0344   0.0726   0.1097   0.0000  -0.0492  -0.2832
   2 N_b :2px   -0.0049  -0.0011   0.0125  -0.0046  -0.0000  -0.0344   0.0090
   3 N_b :2px   -0.0192  -0.0170  -0.0495   0.1330  -0.0000   0.3928   0.4299
   4 N_b :2px   -0.0357  -0.1043  -0.1873   0.9795  -0.0000   2.1875   2.7231
   5 N_b :2px    0.0027   0.2029  -0.9323  -0.5109  -0.0000  -0.3715  -1.1060
   6 N_b :2px    0.0006  -0.6035   0.4112   0.2075   0.0000  -0.0240   0.2297
   7 N_b :3d1+  -0.0063  -0.0007  -0.0010   0.0005  -0.0000   0.0031   0.0115
   8 N_b :3d1+  -0.0265  -0.0001  -0.0047  -0.0145  -0.0000  -0.0223  -0.0150
   9 N_b :3d1+  -0.0298  -0.0079  -0.0072   0.0223   0.0000   0.0541   0.1539
  10 N_b :3d1+  -0.0124  -0.1402  -0.4117   1.3206  -0.0000   3.4783   4.0229
  11 N_b :3d1+  -0.0012   0.0257  -2.0860   2.0231  -0.0000   2.3377   0.5928
  14 N_b :4f1+   0.0079  -0.0016   0.0059   0.0109  -0.0000   0.0026   0.0319
  15 N_b :4f3+  -0.0000  -0.0000  -0.0000  -0.0000   0.0347   0.0000   0.0000
  16 N_b :4f1+   0.0044   0.0347   0.0122  -0.2186  -0.0000  -0.4813  -0.8445
  17 N_b :4f3+   0.0000   0.0000   0.0000   0.0000  -0.1315  -0.0000  -0.0000
  18 N_b :4f1+   0.0030   0.0566   0.4187  -0.8162   0.0000  -2.4711  -1.5191
  19 N_b :4f3+  -0.0000  -0.0000  -0.0000  -0.0000   0.5826   0.0000   0.0000
  22 N_b :5g1+  -0.0019  -0.0006   0.0012  -0.0011   0.0000   0.0074   0.0247
  24 N_b :5g1+  -0.0004  -0.0125  -0.0262   0.1055  -0.0000   0.2499   0.2952

    Orbital         8        9       10       11
   1 N_b :2px    0.3731  -0.0000   0.0309  -0.0673
   2 N_b :2px   -0.0923   0.0000  -0.0720   0.1229
   3 N_b :2px    0.9852   0.0000   1.7773  -0.3908
   4 N_b :2px    1.7911   0.0000   1.9469  -0.9376
   5 N_b :2px   -0.4266  -0.0000  -0.7818   0.2426
   6 N_b :2px   -0.0262  -0.0000   0.1035  -0.0117
   8 N_b :3d1+  -0.0559   0.0000  -0.1842  -0.0115
   9 N_b :3d1+   0.1147   0.0000   0.0853  -0.0534
  10 N_b :3d1+   5.3068   0.0000   5.7016  -2.0886
  11 N_b :3d1+   1.2514   0.0000   0.5239  -0.7004
  13 N_b :4f3+   0.0000   0.0245   0.0000  -0.0000
  14 N_b :4f1+  -0.0236  -0.0000   0.0098  -0.0045
  15 N_b :4f3+  -0.0000  -0.1132  -0.0000   0.0000
  16 N_b :4f1+  -0.8178  -0.0000  -2.2904  -0.0989
  17 N_b :4f3+   0.0000   0.7675   0.0000  -0.0000
  18 N_b :4f1+  -2.3861  -0.0000  -1.7967   1.0769
  19 N_b :4f3+  -0.0000  -0.3161  -0.0000   0.0000
  20 N_b :5g1+  -0.0078   0.0000  -0.0128  -0.0240
  22 N_b :5g1+   0.0846  -0.0000   0.1952   0.1887
  24 N_b :5g1+   0.2874   0.0000   0.5783  -0.9372
  25 N_b :5g3+   0.0000   0.0412   0.0000  -0.0000

 Molecular orbitals for symmetry species 3  (B2u)
 ------------------------------------------------

    Orbital         1        2        3        4        5        6        7
   1 N_b :2py    0.6326   0.0344   0.0726   0.1097  -0.0000  -0.0492  -0.2832
   2 N_b :2py   -0.0049  -0.0011   0.0125  -0.0046   0.0000  -0.0344   0.0090
   3 N_b :2py   -0.0192  -0.0170  -0.0495   0.1330   0.0000   0.3928   0.4299
   4 N_b :2py   -0.0357  -0.1043  -0.1873   0.9795   0.0000   2.1875   2.7231
   5 N_b :2py    0.0027   0.2029  -0.9323  -0.5109   0.0000  -0.3715  -1.1060
   6 N_b :2py    0.0006  -0.6035   0.4112   0.2075  -0.0000  -0.0240   0.2297
   7 N_b :3d1-  -0.0063  -0.0007  -0.0010   0.0005   0.0000   0.0031   0.0115
   8 N_b :3d1-  -0.0265  -0.0001  -0.0047  -0.0145   0.0000  -0.0223  -0.0150
   9 N_b :3d1-  -0.0298  -0.0079  -0.0072   0.0223  -0.0000   0.0541   0.1539
  10 N_b :3d1-  -0.0124  -0.1402  -0.4117   1.3206   0.0000   3.4783   4.0229
  11 N_b :3d1-  -0.0012   0.0257  -2.0860   2.0231   0.0000   2.3377   0.5928
  14 N_b :4f3-   0.0000   0.0000   0.0000   0.0000   0.0347  -0.0000  -0.0000
  15 N_b :4f1-   0.0079  -0.0016   0.0059   0.0109   0.0000   0.0026   0.0319
  16 N_b :4f3-  -0.0000  -0.0000  -0.0000  -0.0000  -0.1315   0.0000   0.0000
  17 N_b :4f1-   0.0044   0.0347   0.0122  -0.2186   0.0000  -0.4813  -0.8445
  18 N_b :4f3-   0.0000   0.0000   0.0000   0.0000   0.5826  -0.0000  -0.0000
  19 N_b :4f1-   0.0030   0.0566   0.4187  -0.8162  -0.0000  -2.4711  -1.5191
  23 N_b :5g1-  -0.0019  -0.0006   0.0012  -0.0011  -0.0000   0.0074   0.0247
  25 N_b :5g1-  -0.0004  -0.0125  -0.0262   0.1055   0.0000   0.2499   0.2952

    Orbital         8        9       10       11
   1 N_b :2py    0.3731   0.0000   0.0309  -0.0673
   2 N_b :2py   -0.0923  -0.0000  -0.0720   0.1229
   3 N_b :2py    0.9852  -0.0000   1.7773  -0.3908
   4 N_b :2py    1.7911  -0.0000   1.9469  -0.9376
   5 N_b :2py   -0.4266   0.0000  -0.7818   0.2426
   6 N_b :2py   -0.0262  -0.0000   0.1035  -0.0117
   8 N_b :3d1-  -0.0559  -0.0000  -0.1842  -0.0115
   9 N_b :3d1-   0.1147  -0.0000   0.0853  -0.0534
  10 N_b :3d1-   5.3068  -0.0000   5.7016  -2.0886
  11 N_b :3d1-   1.2514  -0.0000   0.5239  -0.7004
  12 N_b :4f3-  -0.0000   0.0245  -0.0000   0.0000
  14 N_b :4f3-   0.0000  -0.1132   0.0000  -0.0000
  15 N_b :4f1-  -0.0236   0.0000   0.0098  -0.0045
  16 N_b :4f3-  -0.0000   0.7675  -0.0000   0.0000
  17 N_b :4f1-  -0.8178   0.0000  -2.2904  -0.0989
  18 N_b :4f3-   0.0000  -0.3161   0.0000  -0.0000
  19 N_b :4f1-  -2.3861   0.0000  -1.7967   1.0769
  21 N_b :5g1-  -0.0078   0.0000  -0.0128  -0.0240
  23 N_b :5g1-   0.0846   0.0000   0.1952   0.1887
  24 N_b :5g3-   0.0000   0.0412   0.0000  -0.0000
  25 N_b :5g1-   0.2874  -0.0000   0.5783  -0.9372

 Molecular orbitals for symmetry species 4  (B1g)
 ------------------------------------------------

    Orbital         1        2        3        4        5        6        7
   1 N_b :3d2-  -0.0024  -0.0025   0.0019   0.0353   0.0000   0.0019  -0.0241
   2 N_b :3d2-   0.0068   0.0466  -0.0195  -0.0523   0.0000   0.0475   0.1392
   3 N_b :3d2-  -0.0442  -0.0814   0.0963   0.8385   0.0000  -0.2514  -1.6497
   4 N_b :3d2-   0.1292   0.7665   0.4226  -0.4834   0.0000  -0.2807   0.3121
   5 N_b :3d2-  -0.5714  -0.3492  -0.0791   0.1635   0.0000   0.0820  -0.0415
   6 N_b :4f2-   0.0004   0.0006  -0.0025  -0.0095   0.0000   0.0042  -0.0285
   7 N_b :4f2-  -0.0006  -0.0051   0.0217   0.0184   0.0000  -0.0348   0.1262
   8 N_b :4f2-  -0.0018  -0.0076  -0.0399  -0.1093   0.0000   0.0813  -1.7305
   9 N_b :4f2-   0.0196   0.1657   1.5045   0.2597   0.0000  -0.9244  -0.4379
  10 N_b :5g4-   0.0000   0.0000   0.0000   0.0000   0.0313   0.0000   0.0000
  11 N_b :5g2-  -0.0009  -0.0033  -0.0064   0.0058   0.0000   0.0244   0.0113
  12 N_b :5g4-   0.0000   0.0000   0.0000   0.0000  -0.1424   0.0000   0.0000
  13 N_b :5g2-   0.0030   0.0134   0.0391  -0.0036   0.0000  -0.1384  -0.0437
  14 N_b :5g4-   0.0000   0.0000   0.0000   0.0000   0.6178   0.0000   0.0000
  15 N_b :5g2-   0.0009  -0.0221  -0.2444  -0.2151   0.0000   1.1298   1.7654

    Orbital         8        9       10
   1 N_b :3d2-  -0.0223   0.0000  -0.0032
   2 N_b :3d2-   0.6496   0.0000   0.2544
   3 N_b :3d2-  -0.3375   0.0000  -0.6672
   4 N_b :3d2-   0.2145   0.0000   0.2531
   5 N_b :3d2-  -0.0786   0.0000  -0.0514
   6 N_b :4f2-   0.0286   0.0000  -0.0516
   7 N_b :4f2-  -0.4070   0.0000   0.7527
   8 N_b :4f2-   0.4452   0.0000  -0.9198
   9 N_b :4f2-   0.0134   0.0000   0.2150
  10 N_b :5g4-   0.0000  -0.1115   0.0000
  11 N_b :5g2-  -0.0333   0.0000  -0.0738
  12 N_b :5g4-   0.0000   0.8175   0.0000
  13 N_b :5g2-   0.1732   0.0000   0.6706
  14 N_b :5g4-   0.0000  -0.3213   0.0000
  15 N_b :5g2-  -0.3161   0.0000   0.2053

 Molecular orbitals for symmetry species 5  (B1u)
 ------------------------------------------------

    Orbital         1        2        3        4        5        6        7
   1 N_b :1s     0.7076   0.0021  -0.0002   0.0007   0.0000  -0.0050  -0.0019
   2 N_b :1s     0.0016   0.6492  -0.0202   0.0571   0.0000  -0.0247  -0.1156
   3 N_b :1s     0.0013  -0.0002   0.0151   0.0313   0.0000  -0.0449   0.0618
   4 N_b :1s    -0.0102   0.0191  -0.0998  -0.1830  -0.0000   0.5159  -0.4016
   5 N_b :1s     0.0087   0.1291  -2.1462  -4.4988   0.0000   2.1103  -9.5883
   6 N_b :1s     0.0065  -0.0509  -8.1456 -17.8229   0.0000   0.5454 -39.4852
   7 N_b :1s     0.0017  -0.0323 -16.7614 -33.0696  -0.0000  -3.0724 -39.0849
   8 N_b :2pz   -0.0063   0.3258  -0.0085   0.0213  -0.0000   0.0068  -0.0432
   9 N_b :2pz    0.0027  -0.0045  -0.0028  -0.0062  -0.0000  -0.0002  -0.0120
  10 N_b :2pz    0.0066  -0.0262   0.1804   0.3719   0.0000  -0.2200   0.7691
  11 N_b :2pz   -0.0025  -0.0553   1.1351   2.4526  -0.0000  -0.0415   5.1539
  12 N_b :2pz   -0.0012   0.0157   2.4881   5.5503  -0.0000   0.5647  11.8287
  13 N_b :2pz   -0.0001   0.0021   2.1773   2.9763   0.0000   0.0863   2.8105
  16 N_b :3d0   -0.0003  -0.0043  -0.0127  -0.0286   0.0000   0.0120  -0.0524
  17 N_b :3d2+  -0.0000   0.0000  -0.0000   0.0000  -0.0110  -0.0000  -0.0000
  18 N_b :3d0   -0.0019  -0.0008  -0.0865  -0.1827   0.0000   0.1582  -0.3692
  19 N_b :3d2+  -0.0000  -0.0000   0.0000  -0.0000   0.1529   0.0000   0.0000
  20 N_b :3d0   -0.0004   0.0109  -0.2199  -0.4424   0.0000   1.2234  -0.9524
  21 N_b :3d2+  -0.0000  -0.0000   0.0000  -0.0000   1.9488   0.0000   0.0000
  22 N_b :3d0   -0.0000   0.0002  -0.2234  -0.4103   0.0000   2.7310  -0.9125
  23 N_b :3d2+  -0.0000  -0.0000   0.0000  -0.0000   3.7222  -0.0000   0.0000
  26 N_b :4f0    0.0002  -0.0005   0.0095   0.0201  -0.0000  -0.0070   0.0402
  28 N_b :4f0    0.0012  -0.0012  -0.0024  -0.0107  -0.0000  -0.1913  -0.0201
  29 N_b :4f2+   0.0000   0.0000  -0.0000   0.0000  -0.1936  -0.0000  -0.0000
  30 N_b :4f0    0.0002  -0.0038   0.0200   0.0194  -0.0000  -0.8702   0.0469
  31 N_b :4f2+   0.0000   0.0000  -0.0000   0.0000  -0.9350  -0.0000  -0.0000
  38 N_b :5g0   -0.0004   0.0007   0.0053   0.0149   0.0000   0.1033   0.0290
  39 N_b :5g2+  -0.0000  -0.0000   0.0000  -0.0000   0.0864   0.0000   0.0000

    Orbital         8        9       10       11       12
   1 N_b :1s    -0.0081  -0.0000  -0.0118  -0.0262  -0.0000
   2 N_b :1s    -0.2052  -0.0000   0.0318  -0.1441  -0.0000
   3 N_b :1s    -0.1635  -0.0000  -0.0782  -0.2547  -0.0000
   4 N_b :1s     1.2352   0.0000   1.3134   3.9105   0.0000
   5 N_b :1s    20.7984  -0.0000  -0.9541  17.1681  -0.0000
   6 N_b :1s    63.8743  -0.0000 -27.8237  -6.9581  -0.0000
   7 N_b :1s    31.7193   0.0000 -13.6455  -0.8169   0.0000
   8 N_b :2pz   -0.0627   0.0000  -0.0093   0.1970   0.0000
   9 N_b :2pz    0.0233   0.0000  -0.0103  -0.0006   0.0000
  10 N_b :2pz   -1.6857  -0.0000  -0.1143  -1.8646  -0.0000
  11 N_b :2pz  -10.3786   0.0000   3.8982  -2.6583   0.0000
  12 N_b :2pz  -15.8483  -0.0000   6.6361   0.6928   0.0000
  13 N_b :2pz   -2.0558  -0.0000   0.7946   0.0023  -0.0000
  15 N_b :3d2+   0.0000  -0.0041  -0.0000   0.0000  -0.0106
  16 N_b :3d0    0.1189  -0.0000  -0.0138   0.1070  -0.0000
  17 N_b :3d2+  -0.0000   0.0329   0.0000  -0.0000   0.0433
  18 N_b :3d0    0.8954  -0.0000   0.1877   1.3864  -0.0000
  19 N_b :3d2+   0.0000  -0.4483  -0.0000   0.0000  -1.2047
  20 N_b :3d0    3.1908  -0.0000   2.8654   8.2072  -0.0000
  21 N_b :3d2+   0.0000  -5.7866  -0.0000   0.0000 -11.4026
  22 N_b :3d0    1.8566  -0.0000   1.6716   1.4176  -0.0000
  23 N_b :3d2+   0.0000  -2.9997  -0.0000   0.0000  -2.0130
  26 N_b :4f0   -0.0869   0.0000   0.0041  -0.0838   0.0000
  27 N_b :4f2+  -0.0000   0.0124   0.0000  -0.0000   0.0575
  28 N_b :4f0   -0.1755   0.0000  -0.6290  -1.6157   0.0000
  29 N_b :4f2+  -0.0000   0.5947   0.0000  -0.0000   1.5416
  30 N_b :4f0   -0.9882   0.0000  -2.4719  -3.4813   0.0000
  31 N_b :4f2+  -0.0000   2.7645   0.0000  -0.0000   3.6101
  35 N_b :5g0   -0.0024  -0.0000   0.0029   0.0733  -0.0000
  36 N_b :5g2+   0.0000  -0.0112  -0.0000   0.0000  -0.0950
  38 N_b :5g0    0.0454  -0.0000   0.3199   0.5649  -0.0000
  39 N_b :5g2+   0.0000  -0.2417  -0.0000   0.0000  -0.4332

 Molecular orbitals for symmetry species 6  (B2g)
 ------------------------------------------------

    Orbital         1        2        3        4        5        6        7
   1 N_b :2px   -0.0272  -0.2415   0.5006   0.3371   0.0000   0.0827   0.4009
   2 N_b :2px    0.0063  -0.0099  -0.0193   0.0360  -0.0000  -0.0182  -0.0731
   3 N_b :2px   -0.1004   0.1926   0.2716  -0.6337  -0.0000   0.3043   1.2785
   4 N_b :2px   -0.9712   1.9161   2.6953  -6.1286  -0.0000   1.1531  13.7235
   5 N_b :2px   -6.1351  13.3082  17.3892 -32.2022  -0.0000  -0.4782  32.4102
   6 N_b :2px   -6.1869   4.5572   3.4833  -3.4977  -0.0000  -0.7210   2.5056
   8 N_b :3d1+   0.0056  -0.0194  -0.0037   0.0491  -0.0000  -0.0262  -0.0733
   9 N_b :3d1+   0.1324  -0.2875  -0.3194   0.9035   0.0000  -0.4053  -1.7538
  10 N_b :3d1+   0.4995  -1.0694  -1.2971   3.4660  -0.0000  -1.1349  -7.0005
  11 N_b :3d1+   1.5129  -3.4202  -3.9256   6.1949   0.0000   0.4203  -5.6352
  14 N_b :4f1+  -0.0175   0.0371   0.0411  -0.1141   0.0000   0.0361   0.2132
  16 N_b :4f1+  -0.0553   0.1161   0.1400  -0.3860  -0.0000   0.2146   0.7545
  17 N_b :4f3+   0.0000   0.0000  -0.0000  -0.0000   0.1483  -0.0000  -0.0000
  18 N_b :4f1+  -0.1083   0.2303   0.2572  -0.4883   0.0000  -1.2707   1.2626
  19 N_b :4f3+   0.0000   0.0000  -0.0000  -0.0000   2.0158  -0.0000  -0.0000
  20 N_b :5g1+   0.0016  -0.0031  -0.0036   0.0070  -0.0000   0.0079  -0.0152
  22 N_b :5g1+   0.0042  -0.0087  -0.0122   0.0395  -0.0000  -0.0611  -0.0669
  23 N_b :5g3+  -0.0000  -0.0000   0.0000   0.0000   0.0540   0.0000   0.0000
  24 N_b :5g1+   0.0142  -0.0273  -0.0297   0.0395   0.0000   0.2022  -0.1203
  25 N_b :5g3+  -0.0000  -0.0000   0.0000   0.0000  -0.3088   0.0000   0.0000

    Orbital         8        9       10
   1 N_b :2px   -0.4585  -0.0868   0.0000
   2 N_b :2px   -0.1456   0.0123  -0.0000
   3 N_b :2px    2.5021  -0.6388  -0.0000
   4 N_b :2px   23.4548  -1.0690  -0.0000
   5 N_b :2px   25.7034   1.6983  -0.0000
   6 N_b :2px    1.6683   0.4335  -0.0000
   7 N_b :3d1+   0.0177  -0.0108  -0.0000
   8 N_b :3d1+  -0.1465   0.0682  -0.0000
   9 N_b :3d1+  -3.6834   1.0497   0.0000
  10 N_b :3d1+  -9.2778   0.4443   0.0000
  11 N_b :3d1+  -4.2203  -0.4511   0.0000
  14 N_b :4f1+   0.4495  -0.1225   0.0000
  15 N_b :4f3+   0.0000   0.0000  -0.0487
  16 N_b :4f1+   1.5960  -0.5642  -0.0000
  17 N_b :4f3+   0.0000   0.0000   0.9008
  18 N_b :4f1+   1.2438   0.8658   0.0000
  19 N_b :4f3+   0.0000   0.0000   1.2542
  20 N_b :5g1+  -0.0290  -0.0265  -0.0000
  21 N_b :5g3+   0.0000   0.0000  -0.0257
  22 N_b :5g1+  -0.1486   0.1967  -0.0000
  23 N_b :5g3+  -0.0000  -0.0000   0.1806
  24 N_b :5g1+  -0.2311  -0.9918   0.0000
  25 N_b :5g3+  -0.0000  -0.0000  -1.5208

 Molecular orbitals for symmetry species 7  (B3g)
 ------------------------------------------------

    Orbital         1        2        3        4        5        6        7
   1 N_b :2py   -0.0272  -0.2415   0.5006   0.3371  -0.0000   0.0827   0.4009
   2 N_b :2py    0.0063  -0.0099  -0.0193   0.0360   0.0000  -0.0182  -0.0731
   3 N_b :2py   -0.1004   0.1926   0.2716  -0.6337   0.0000   0.3043   1.2785
   4 N_b :2py   -0.9712   1.9161   2.6953  -6.1286   0.0000   1.1531  13.7235
   5 N_b :2py   -6.1351  13.3082  17.3892 -32.2022   0.0000  -0.4782  32.4102
   6 N_b :2py   -6.1869   4.5572   3.4833  -3.4977   0.0000  -0.7210   2.5056
   8 N_b :3d1-   0.0056  -0.0194  -0.0037   0.0491   0.0000  -0.0262  -0.0733
   9 N_b :3d1-   0.1324  -0.2875  -0.3194   0.9035  -0.0000  -0.4053  -1.7538
  10 N_b :3d1-   0.4995  -1.0694  -1.2971   3.4660   0.0000  -1.1349  -7.0005
  11 N_b :3d1-   1.5129  -3.4202  -3.9256   6.1949  -0.0000   0.4203  -5.6352
  15 N_b :4f1-  -0.0175   0.0371   0.0411  -0.1141  -0.0000   0.0361   0.2132
  16 N_b :4f3-  -0.0000  -0.0000   0.0000   0.0000   0.1483   0.0000   0.0000
  17 N_b :4f1-  -0.0553   0.1161   0.1400  -0.3860   0.0000   0.2146   0.7545
  18 N_b :4f3-  -0.0000  -0.0000   0.0000   0.0000   2.0158   0.0000   0.0000
  19 N_b :4f1-  -0.1083   0.2303   0.2572  -0.4883  -0.0000  -1.2707   1.2626
  21 N_b :5g1-   0.0016  -0.0031  -0.0036   0.0070   0.0000   0.0079  -0.0152
  22 N_b :5g3-  -0.0000  -0.0000   0.0000   0.0000   0.0540   0.0000   0.0000
  23 N_b :5g1-   0.0042  -0.0087  -0.0122   0.0395   0.0000  -0.0611  -0.0669
  24 N_b :5g3-   0.0000   0.0000  -0.0000  -0.0000  -0.3088  -0.0000  -0.0000
  25 N_b :5g1-   0.0142  -0.0273  -0.0297   0.0395  -0.0000   0.2022  -0.1203

    Orbital         8        9       10
   1 N_b :2py   -0.4585  -0.0868  -0.0000
   2 N_b :2py   -0.1456   0.0123   0.0000
   3 N_b :2py    2.5021  -0.6388   0.0000
   4 N_b :2py   23.4548  -1.0690   0.0000
   5 N_b :2py   25.7034   1.6983   0.0000
   6 N_b :2py    1.6683   0.4335   0.0000
   7 N_b :3d1-   0.0177  -0.0108   0.0000
   8 N_b :3d1-  -0.1465   0.0682   0.0000
   9 N_b :3d1-  -3.6834   1.0497  -0.0000
  10 N_b :3d1-  -9.2778   0.4443  -0.0000
  11 N_b :3d1-  -4.2203  -0.4511  -0.0000
  14 N_b :4f3-   0.0000   0.0000  -0.0487
  15 N_b :4f1-   0.4495  -0.1225  -0.0000
  16 N_b :4f3-  -0.0000  -0.0000   0.9008
  17 N_b :4f1-   1.5960  -0.5642   0.0000
  18 N_b :4f3-  -0.0000  -0.0000   1.2542
  19 N_b :4f1-   1.2438   0.8658  -0.0000
  20 N_b :5g3-   0.0000   0.0000  -0.0257
  21 N_b :5g1-  -0.0290  -0.0265   0.0000
  22 N_b :5g3-  -0.0000  -0.0000   0.1806
  23 N_b :5g1-  -0.1486   0.1967   0.0000
  24 N_b :5g3-   0.0000   0.0000  -1.5208
  25 N_b :5g1-  -0.2311  -0.9918  -0.0000

 Molecular orbitals for symmetry species 8  (Au )
 ------------------------------------------------

    Orbital         1        2        3        4        5        6        7
   1 N_b :3d2-   0.0019   0.0041   0.0106   0.0003   0.0000  -0.0121   0.0540
   2 N_b :3d2-  -0.0110  -0.0329  -0.0433   0.0773   0.0000   0.1364  -0.0949
   3 N_b :3d2-   0.1529   0.4483   1.2047  -1.9639   0.0000  -1.0372   5.4753
   4 N_b :3d2-   1.9488   5.7866  11.4026  -8.4179   0.0000  -6.9694   9.1661
   5 N_b :3d2-   3.7222   2.9997   2.0130  -0.5740   0.0000  -1.2133   0.8151
   6 N_b :4f2-   0.0002   0.0007   0.0039  -0.0062   0.0000   0.0002   0.0196
   7 N_b :4f2-  -0.0017  -0.0124  -0.0575   0.1833   0.0000  -0.0355  -0.2648
   8 N_b :4f2-  -0.1936  -0.5947  -1.5416   2.9870   0.0000   1.1500  -4.4438
   9 N_b :4f2-  -0.9350  -2.7645  -3.6101   1.9962   0.0000   2.1292  -2.2089
  10 N_b :5g4-   0.0000   0.0000   0.0000   0.0000   0.0338   0.0000   0.0000
  11 N_b :5g2-   0.0006   0.0007  -0.0065   0.0265   0.0000  -0.0203  -0.0182
  12 N_b :5g4-   0.0000   0.0000   0.0000   0.0000  -0.1855   0.0000   0.0000
  13 N_b :5g2-   0.0003   0.0112   0.0950  -0.3191   0.0000   0.1292   0.3533
  14 N_b :5g4-   0.0000   0.0000   0.0000   0.0000   1.2680   0.0000   0.0000
  15 N_b :5g2-   0.0864   0.2417   0.4332  -0.3032   0.0000  -1.1842   1.1923

    Orbital         8        9       10
   1 N_b :3d2-  -0.0234   0.0000  -0.0182
   2 N_b :3d2-   0.0756   0.0000   1.1587
   3 N_b :3d2-   3.1373   0.0000  -6.0071
   4 N_b :3d2-   1.8287   0.0000  -6.0103
   5 N_b :3d2-  -0.1204   0.0000  -0.5486
   6 N_b :4f2-   0.0344   0.0000  -0.0547
   7 N_b :4f2-  -0.5889   0.0000   0.9419
   8 N_b :4f2-  -2.0529   0.0000   3.6532
   9 N_b :4f2-  -0.2365   0.0000   1.4295
  10 N_b :5g4-   0.0000   0.1242   0.0000
  11 N_b :5g2-  -0.0941   0.0000  -0.0262
  12 N_b :5g4-   0.0000  -1.0807   0.0000
  13 N_b :5g2-   1.3834   0.0000  -0.4695
  14 N_b :5g4-   0.0000   0.5820   0.0000
  15 N_b :5g2-  -0.0384   0.0000  -0.9756

  Total CPU  time used in SIRIUS :  15.32 seconds
  Total wall time used in SIRIUS :  15.34 seconds

 
     Date and time (Linux)  : Wed Jan 11 14:18:04 2023
     Host name              : cn020                                   


                     .---------------------------------------.
                     | End of Wave Function Section (SIRIUS) |
                     `---------------------------------------'



                 .------------------------------------------------.
                 | Starting in Dynamic Property Section (RESPONS) |
                 `------------------------------------------------'


 ----------------------------------------------------------------------------------------
  RESPONSE  -  an MCSCF, MC-srDFT, DFT, SOPPA and SOPPA-srDFT response property program
 ----------------------------------------------------------------------------------------


 -------- OUTPUT FROM RESPONSE INPUT PROCESSING --------




 Linear Response calculation
 ---------------------------

 Print level                                    : IPRLR  =   2
 Maximum number of iterations                   : MAXITL =  60
 Threshold for relative convergence             : THCLR  = 1.000D-03
 Maximum iterations in optimal orbital algorithm: MAXITO =   5

  9 B-frequencies  0.000000D+00  1.825019D-02  3.650038D-02  5.475056D-02  7.300075D-02
  9.125094D-02  1.095011D-01  1.277513D-01  1.460015D-01

    1 second order properties calculated with symmetry no.    2 and labels:

          XDIPLEN 

    1 second order properties calculated with symmetry no.    3 and labels:

          YDIPLEN 

    1 second order properties calculated with symmetry no.    5 and labels:

          ZDIPLEN 


   SCF energy         :     -108.991579430322872
 -- inactive part     :     -132.613778512431708
 -- nuclear repulsion :       23.622199082108835


                     ***************************************
                     *** RHF response calculation (TDHF) ***
                     ***************************************

 ----------------------------------------------------------------
 ----- Linear response calculation
 ----- Symmetry of excitation/property operator(s)    2  ( B3u)
 ----------------------------------------------------------------

 Number of excitations of this symmetry            0
 Number of response properties of this symmetry    1
 Number of C6/C8 properties of this symmetry       0


 Perturbation symmetry.     KSYMOP:           2
 Perturbation spin symmetry.TRPLET:           F
 Orbital variables.         KZWOPT:         174
 Configuration variables.   KZCONF:           0
 Total number of variables. KZVAR :         174


 RSPLR -- linear response calculation for symmetry 2  ( B3u)
 RSPLR -- operator label : XDIPLEN 
 RSPLR -- operator spin  :   0
 RSPLR -- frequencies    :     0.000000  0.018250  0.036500  0.054751  0.073001
                               0.091251  0.109501  0.127751  0.146002



 ---  SOLVING SETS OF LINEAR EQUATIONS FOR LINEAR RESPONSE PROPERTIES ---

 Operator symmetry = 2  ( B3u); triplet =   F

RSPORT:    1 out of    9 new trial vectors linear dependent

 ** RSPCTL MICROITERATION NUMBER    1

       No.  Residual tot.,    conf., and orb.    Bnorm      Frequency 
      ----------------------------------------------------------------
         1    8.29758D-01  0.00D+00  8.30D-01  2.34D+00    0.00000D+00
         2    8.30236D-01  0.00D+00  8.30D-01  2.34D+00    1.82502D-02
         3    8.31678D-01  0.00D+00  8.32D-01  2.35D+00    3.65004D-02
         4    8.34098D-01  0.00D+00  8.34D-01  2.37D+00    5.47506D-02
         5    8.37526D-01  0.00D+00  8.38D-01  2.39D+00    7.30008D-02
         6    8.42002D-01  0.00D+00  8.42D-01  2.42D+00    9.12509D-02
         7    8.47582D-01  0.00D+00  8.48D-01  2.46D+00    1.09501D-01
         8    8.54338D-01  0.00D+00  8.54D-01  2.51D+00    1.27751D-01
         9    8.62358D-01  0.00D+00  8.62D-01  2.56D+00    1.46002D-01

 ** RSPCTL MICROITERATION NUMBER    2

       No.  Residual tot.,    conf., and orb.    Bnorm      Frequency 
      ----------------------------------------------------------------
         1    6.41591D-02  0.00D+00  6.42D-02  2.40D+00    0.00000D+00
         2    6.42106D-02  0.00D+00  6.42D-02  2.40D+00    1.82502D-02
         3    6.43661D-02  0.00D+00  6.44D-02  2.41D+00    3.65004D-02
         4    6.46283D-02  0.00D+00  6.46D-02  2.43D+00    5.47506D-02
         5    6.50025D-02  0.00D+00  6.50D-02  2.45D+00    7.30008D-02
         6    6.54957D-02  0.00D+00  6.55D-02  2.48D+00    9.12509D-02
         7    6.61184D-02  0.00D+00  6.61D-02  2.52D+00    1.09501D-01
         8    6.68841D-02  0.00D+00  6.69D-02  2.57D+00    1.27751D-01
         9    6.78108D-02  0.00D+00  6.78D-02  2.63D+00    1.46002D-01

 ** RSPCTL MICROITERATION NUMBER    3

       No.  Residual tot.,    conf., and orb.    Bnorm      Frequency 
      ----------------------------------------------------------------
         1    6.38614D-03  0.00D+00  6.39D-03  2.40D+00    0.00000D+00
         2    6.38860D-03  0.00D+00  6.39D-03  2.40D+00    1.82502D-02
         3    6.39599D-03  0.00D+00  6.40D-03  2.41D+00    3.65004D-02
         4    6.40831D-03  0.00D+00  6.41D-03  2.43D+00    5.47506D-02
         5    6.42562D-03  0.00D+00  6.43D-03  2.45D+00    7.30008D-02
         6    6.44799D-03  0.00D+00  6.45D-03  2.49D+00    9.12509D-02
         7    6.47559D-03  0.00D+00  6.48D-03  2.52D+00    1.09501D-01
         8    6.50873D-03  0.00D+00  6.51D-03  2.57D+00    1.27751D-01
         9    6.54795D-03  0.00D+00  6.55D-03  2.63D+00    1.46002D-01

 ** RSPCTL MICROITERATION NUMBER    4

       No.  Residual tot.,    conf., and orb.    Bnorm      Frequency 
      ----------------------------------------------------------------
         1    4.09012D-04  0.00D+00  4.09D-04  2.40D+00    0.00000D+00
         2    4.09371D-04  0.00D+00  4.09D-04  2.40D+00    1.82502D-02
         3    4.10465D-04  0.00D+00  4.10D-04  2.41D+00    3.65004D-02
         4    4.12348D-04  0.00D+00  4.12D-04  2.43D+00    5.47506D-02
         5    4.15124D-04  0.00D+00  4.15D-04  2.45D+00    7.30008D-02
         6    4.18957D-04  0.00D+00  4.19D-04  2.49D+00    9.12509D-02
         7    4.24107D-04  0.00D+00  4.24D-04  2.52D+00    1.09501D-01
         8    4.30970D-04  0.00D+00  4.31D-04  2.57D+00    1.27751D-01
         9    4.40145D-04  0.00D+00  4.40D-04  2.63D+00    1.46002D-01

 *** THE REQUESTED    9 SOLUTION VECTORS CONVERGED

 Convergence of RSP solution vectors, threshold = 1.00D-03
 ---------------------------------------------------------------
 (dimension of paired reduced space:   70)
 RSP solution vector no.    1; norm of residual   1.70D-04
 RSP solution vector no.    2; norm of residual   1.70D-04
 RSP solution vector no.    3; norm of residual   1.70D-04
 RSP solution vector no.    4; norm of residual   1.70D-04
 RSP solution vector no.    5; norm of residual   1.69D-04
 RSP solution vector no.    6; norm of residual   1.69D-04
 RSP solution vector no.    7; norm of residual   1.68D-04
 RSP solution vector no.    8; norm of residual   1.68D-04
 RSP solution vector no.    9; norm of residual   1.67D-04

 *** RSPCTL MICROITERATIONS CONVERGED


           Final output of second order properties from linear response
           ------------------------------------------------------------


@ Spin symmetry of operators: singlet

 Note that minus the linear response function: - << A; B >>(omega) is printed.
 The results are of quadratic accuracy using Sellers formula.

@ FREQUENCY INDEPENDENT SECOND ORDER PROPERTIES

@ -<< XDIPLEN  ; XDIPLEN  >> =  9.835500007093E+00

@ FREQUENCY DEPENDENT SECOND ORDER PROPERTIES WITH FREQUENCY :

@    a.u.:  1.8250188D-02
@    cm-1:  4.0054531D+03
@    eV  :  4.9661286D-01
@  kJ/mol:  4.7915860D+01
@    nm  :  2.4965964D+03

@ -<< XDIPLEN  ; XDIPLEN  >> =  9.842336218326E+00

@ FREQUENCY DEPENDENT SECOND ORDER PROPERTIES WITH FREQUENCY :

@    a.u.:  3.6500375D-02
@    cm-1:  8.0109063D+03
@    eV  :  9.9322573D-01
@  kJ/mol:  9.5831720D+01
@    nm  :  1.2482982D+03

@ -<< XDIPLEN  ; XDIPLEN  >> =  9.862920773895E+00

@ FREQUENCY DEPENDENT SECOND ORDER PROPERTIES WITH FREQUENCY :

@    a.u.:  5.4750563D-02
@    cm-1:  1.2016359D+04
@    eV  :  1.4898386D+00
@  kJ/mol:  1.4374758D+02
@    nm  :  8.3219881D+02

@ -<< XDIPLEN  ; XDIPLEN  >> =  9.897483879156E+00

@ FREQUENCY DEPENDENT SECOND ORDER PROPERTIES WITH FREQUENCY :

@    a.u.:  7.3000750D-02
@    cm-1:  1.6021813D+04
@    eV  :  1.9864515D+00
@  kJ/mol:  1.9166344D+02
@    nm  :  6.2414911D+02

@ -<< XDIPLEN  ; XDIPLEN  >> =  9.946417503133E+00

@ FREQUENCY DEPENDENT SECOND ORDER PROPERTIES WITH FREQUENCY :

@    a.u.:  9.1250938D-02
@    cm-1:  2.0027266D+04
@    eV  :  2.4830643D+00
@  kJ/mol:  2.3957930D+02
@    nm  :  4.9931929D+02

@ -<< XDIPLEN  ; XDIPLEN  >> =  1.001028840028E+01

@ FREQUENCY DEPENDENT SECOND ORDER PROPERTIES WITH FREQUENCY :

@    a.u.:  1.0950113D-01
@    cm-1:  2.4032719D+04
@    eV  :  2.9796772D+00
@  kJ/mol:  2.8749516D+02
@    nm  :  4.1609940D+02

@ -<< XDIPLEN  ; XDIPLEN  >> =  1.008985757341E+01

@ FREQUENCY DEPENDENT SECOND ORDER PROPERTIES WITH FREQUENCY :

@    a.u.:  1.2775131D-01
@    cm-1:  2.8038172D+04
@    eV  :  3.4762900D+00
@  kJ/mol:  3.3541102D+02
@    nm  :  3.5665663D+02

@ -<< XDIPLEN  ; XDIPLEN  >> =  1.018610758421E+01

@ FREQUENCY DEPENDENT SECOND ORDER PROPERTIES WITH FREQUENCY :

@    a.u.:  1.4600150D-01
@    cm-1:  3.2043625D+04
@    eV  :  3.9729029D+00
@  kJ/mol:  3.8332688D+02
@    nm  :  3.1207455D+02

@ -<< XDIPLEN  ; XDIPLEN  >> =  1.030027980468E+01


 Time used in linear response calculation is     14.14 CPU seconds for symmetry 2
 ----------------------------------------------------------------
 ----- Linear response calculation
 ----- Symmetry of excitation/property operator(s)    3  ( B2u)
 ----------------------------------------------------------------

 Number of excitations of this symmetry            0
 Number of response properties of this symmetry    1
 Number of C6/C8 properties of this symmetry       0


 Perturbation symmetry.     KSYMOP:           3
 Perturbation spin symmetry.TRPLET:           F
 Orbital variables.         KZWOPT:         174
 Configuration variables.   KZCONF:           0
 Total number of variables. KZVAR :         174


 RSPLR -- linear response calculation for symmetry 3  ( B2u)
 RSPLR -- operator label : YDIPLEN 
 RSPLR -- operator spin  :   0
 RSPLR -- frequencies    :     0.000000  0.018250  0.036500  0.054751  0.073001
                               0.091251  0.109501  0.127751  0.146002



 ---  SOLVING SETS OF LINEAR EQUATIONS FOR LINEAR RESPONSE PROPERTIES ---

 Operator symmetry = 3  ( B2u); triplet =   F


 ** RSPCTL MICROITERATION NUMBER    1

       No.  Residual tot.,    conf., and orb.    Bnorm      Frequency 
      ----------------------------------------------------------------
         1    8.37091D-01  0.00D+00  8.37D-01  2.34D+00    0.00000D+00
         2    8.37560D-01  0.00D+00  8.38D-01  2.34D+00    1.82502D-02
         3    8.38975D-01  0.00D+00  8.39D-01  2.35D+00    3.65004D-02
         4    8.41351D-01  0.00D+00  8.41D-01  2.37D+00    5.47506D-02
         5    8.44715D-01  0.00D+00  8.45D-01  2.39D+00    7.30008D-02
         6    8.49108D-01  0.00D+00  8.49D-01  2.42D+00    9.12509D-02
         7    8.54584D-01  0.00D+00  8.55D-01  2.46D+00    1.09501D-01
         8    8.61212D-01  0.00D+00  8.61D-01  2.51D+00    1.27751D-01
         9    8.69080D-01  0.00D+00  8.69D-01  2.56D+00    1.46002D-01

 ** RSPCTL MICROITERATION NUMBER    2

       No.  Residual tot.,    conf., and orb.    Bnorm      Frequency 
      ----------------------------------------------------------------
         1    6.18588D-02  0.00D+00  6.19D-02  2.40D+00    0.00000D+00
         2    6.19120D-02  0.00D+00  6.19D-02  2.40D+00    1.82502D-02
         3    6.20729D-02  0.00D+00  6.21D-02  2.41D+00    3.65004D-02
         4    6.23443D-02  0.00D+00  6.23D-02  2.43D+00    5.47506D-02
         5    6.27319D-02  0.00D+00  6.27D-02  2.45D+00    7.30008D-02
         6    6.32434D-02  0.00D+00  6.32D-02  2.48D+00    9.12509D-02
         7    6.38899D-02  0.00D+00  6.39D-02  2.52D+00    1.09501D-01
         8    6.46861D-02  0.00D+00  6.47D-02  2.57D+00    1.27751D-01
         9    6.56514D-02  0.00D+00  6.57D-02  2.63D+00    1.46002D-01

 ** RSPCTL MICROITERATION NUMBER    3

       No.  Residual tot.,    conf., and orb.    Bnorm      Frequency 
      ----------------------------------------------------------------
         1    6.18332D-03  0.00D+00  6.18D-03  2.40D+00    0.00000D+00
         2    6.18648D-03  0.00D+00  6.19D-03  2.40D+00    1.82502D-02
         3    6.19597D-03  0.00D+00  6.20D-03  2.41D+00    3.65004D-02
         4    6.21187D-03  0.00D+00  6.21D-03  2.43D+00    5.47506D-02
         5    6.23435D-03  0.00D+00  6.23D-03  2.45D+00    7.30008D-02
         6    6.26365D-03  0.00D+00  6.26D-03  2.49D+00    9.12509D-02
         7    6.30018D-03  0.00D+00  6.30D-03  2.52D+00    1.09501D-01
         8    6.34458D-03  0.00D+00  6.34D-03  2.57D+00    1.27751D-01
         9    6.39784D-03  0.00D+00  6.40D-03  2.63D+00    1.46002D-01

 ** RSPCTL MICROITERATION NUMBER    4

       No.  Residual tot.,    conf., and orb.    Bnorm      Frequency 
      ----------------------------------------------------------------
         1    3.33563D-04  0.00D+00  3.34D-04  2.40D+00    0.00000D+00
         2    3.33619D-04  0.00D+00  3.34D-04  2.40D+00    1.82502D-02
         3    3.33780D-04  0.00D+00  3.34D-04  2.41D+00    3.65004D-02
         4    3.34032D-04  0.00D+00  3.34D-04  2.43D+00    5.47506D-02
         5    3.34348D-04  0.00D+00  3.34D-04  2.45D+00    7.30008D-02
         6    3.34700D-04  0.00D+00  3.35D-04  2.49D+00    9.12509D-02
         7    3.35063D-04  0.00D+00  3.35D-04  2.52D+00    1.09501D-01
         8    3.35433D-04  0.00D+00  3.35D-04  2.57D+00    1.27751D-01
         9    3.35860D-04  0.00D+00  3.36D-04  2.63D+00    1.46002D-01

 *** THE REQUESTED    9 SOLUTION VECTORS CONVERGED

 Convergence of RSP solution vectors, threshold = 1.00D-03
 ---------------------------------------------------------------
 (dimension of paired reduced space:   72)
 RSP solution vector no.    1; norm of residual   1.39D-04
 RSP solution vector no.    2; norm of residual   1.39D-04
 RSP solution vector no.    3; norm of residual   1.38D-04
 RSP solution vector no.    4; norm of residual   1.37D-04
 RSP solution vector no.    5; norm of residual   1.36D-04
 RSP solution vector no.    6; norm of residual   1.35D-04
 RSP solution vector no.    7; norm of residual   1.33D-04
 RSP solution vector no.    8; norm of residual   1.30D-04
 RSP solution vector no.    9; norm of residual   1.28D-04

 *** RSPCTL MICROITERATIONS CONVERGED


           Final output of second order properties from linear response
           ------------------------------------------------------------


@ Spin symmetry of operators: singlet

 Note that minus the linear response function: - << A; B >>(omega) is printed.
 The results are of quadratic accuracy using Sellers formula.

@ FREQUENCY INDEPENDENT SECOND ORDER PROPERTIES

@ -<< YDIPLEN  ; YDIPLEN  >> =  9.835500010449E+00

@ FREQUENCY DEPENDENT SECOND ORDER PROPERTIES WITH FREQUENCY :

@    a.u.:  1.8250188D-02
@    cm-1:  4.0054531D+03
@    eV  :  4.9661286D-01
@  kJ/mol:  4.7915860D+01
@    nm  :  2.4965964D+03

@ -<< YDIPLEN  ; YDIPLEN  >> =  9.842336221709E+00

@ FREQUENCY DEPENDENT SECOND ORDER PROPERTIES WITH FREQUENCY :

@    a.u.:  3.6500375D-02
@    cm-1:  8.0109063D+03
@    eV  :  9.9322573D-01
@  kJ/mol:  9.5831720D+01
@    nm  :  1.2482982D+03

@ -<< YDIPLEN  ; YDIPLEN  >> =  9.862920777361E+00

@ FREQUENCY DEPENDENT SECOND ORDER PROPERTIES WITH FREQUENCY :

@    a.u.:  5.4750563D-02
@    cm-1:  1.2016359D+04
@    eV  :  1.4898386D+00
@  kJ/mol:  1.4374758D+02
@    nm  :  8.3219881D+02

@ -<< YDIPLEN  ; YDIPLEN  >> =  9.897483882770E+00

@ FREQUENCY DEPENDENT SECOND ORDER PROPERTIES WITH FREQUENCY :

@    a.u.:  7.3000750D-02
@    cm-1:  1.6021813D+04
@    eV  :  1.9864515D+00
@  kJ/mol:  1.9166344D+02
@    nm  :  6.2414911D+02

@ -<< YDIPLEN  ; YDIPLEN  >> =  9.946417506975E+00

@ FREQUENCY DEPENDENT SECOND ORDER PROPERTIES WITH FREQUENCY :

@    a.u.:  9.1250938D-02
@    cm-1:  2.0027266D+04
@    eV  :  2.4830643D+00
@  kJ/mol:  2.3957930D+02
@    nm  :  4.9931929D+02

@ -<< YDIPLEN  ; YDIPLEN  >> =  1.001028840446E+01

@ FREQUENCY DEPENDENT SECOND ORDER PROPERTIES WITH FREQUENCY :

@    a.u.:  1.0950113D-01
@    cm-1:  2.4032719D+04
@    eV  :  2.9796772D+00
@  kJ/mol:  2.8749516D+02
@    nm  :  4.1609940D+02

@ -<< YDIPLEN  ; YDIPLEN  >> =  1.008985757806E+01

@ FREQUENCY DEPENDENT SECOND ORDER PROPERTIES WITH FREQUENCY :

@    a.u.:  1.2775131D-01
@    cm-1:  2.8038172D+04
@    eV  :  3.4762900D+00
@  kJ/mol:  3.3541102D+02
@    nm  :  3.5665663D+02

@ -<< YDIPLEN  ; YDIPLEN  >> =  1.018610758955E+01

@ FREQUENCY DEPENDENT SECOND ORDER PROPERTIES WITH FREQUENCY :

@    a.u.:  1.4600150D-01
@    cm-1:  3.2043625D+04
@    eV  :  3.9729029D+00
@  kJ/mol:  3.8332688D+02
@    nm  :  3.1207455D+02

@ -<< YDIPLEN  ; YDIPLEN  >> =  1.030027981099E+01


 Time used in linear response calculation is     14.34 CPU seconds for symmetry 3
 ----------------------------------------------------------------
 ----- Linear response calculation
 ----- Symmetry of excitation/property operator(s)    5  ( B1u)
 ----------------------------------------------------------------

 Number of excitations of this symmetry            0
 Number of response properties of this symmetry    1
 Number of C6/C8 properties of this symmetry       0


 Perturbation symmetry.     KSYMOP:           5
 Perturbation spin symmetry.TRPLET:           F
 Orbital variables.         KZWOPT:         238
 Configuration variables.   KZCONF:           0
 Total number of variables. KZVAR :         238


 RSPLR -- linear response calculation for symmetry 5  ( B1u)
 RSPLR -- operator label : ZDIPLEN 
 RSPLR -- operator spin  :   0
 RSPLR -- frequencies    :     0.000000  0.018250  0.036500  0.054751  0.073001
                               0.091251  0.109501  0.127751  0.146002



 ---  SOLVING SETS OF LINEAR EQUATIONS FOR LINEAR RESPONSE PROPERTIES ---

 Operator symmetry = 5  ( B1u); triplet =   F


 ** RSPCTL MICROITERATION NUMBER    1

       No.  Residual tot.,    conf., and orb.    Bnorm      Frequency 
      ----------------------------------------------------------------
         1    3.13285D+00  0.00D+00  3.13D+00  2.35D+00    0.00000D+00
         2    3.13522D+00  0.00D+00  3.14D+00  2.35D+00    1.82502D-02
         3    3.14235D+00  0.00D+00  3.14D+00  2.37D+00    3.65004D-02
         4    3.15432D+00  0.00D+00  3.15D+00  2.39D+00    5.47506D-02
         5    3.17126D+00  0.00D+00  3.17D+00  2.41D+00    7.30008D-02
         6    3.19336D+00  0.00D+00  3.19D+00  2.45D+00    9.12509D-02
         7    3.22087D+00  0.00D+00  3.22D+00  2.50D+00    1.09501D-01
         8    3.25410D+00  0.00D+00  3.25D+00  2.55D+00    1.27751D-01
         9    3.29347D+00  0.00D+00  3.29D+00  2.61D+00    1.46002D-01

 ** RSPCTL MICROITERATION NUMBER    2

       No.  Residual tot.,    conf., and orb.    Bnorm      Frequency 
      ----------------------------------------------------------------
         1    3.98383D-01  0.00D+00  3.98D-01  3.12D+00    0.00000D+00
         2    3.98970D-01  0.00D+00  3.99D-01  3.13D+00    1.82502D-02
         3    4.00738D-01  0.00D+00  4.01D-01  3.14D+00    3.65004D-02
         4    4.03717D-01  0.00D+00  4.04D-01  3.17D+00    5.47506D-02
         5    4.07957D-01  0.00D+00  4.08D-01  3.22D+00    7.30008D-02
         6    4.13530D-01  0.00D+00  4.14D-01  3.27D+00    9.12509D-02
         7    4.20534D-01  0.00D+00  4.21D-01  3.34D+00    1.09501D-01
         8    4.29097D-01  0.00D+00  4.29D-01  3.42D+00    1.27751D-01
         9    4.39385D-01  0.00D+00  4.39D-01  3.52D+00    1.46002D-01

 ** RSPCTL MICROITERATION NUMBER    3

       No.  Residual tot.,    conf., and orb.    Bnorm      Frequency 
      ----------------------------------------------------------------
         1    2.77704D-02  0.00D+00  2.78D-02  3.13D+00    0.00000D+00
         2    2.78374D-02  0.00D+00  2.78D-02  3.13D+00    1.82502D-02
         3    2.80400D-02  0.00D+00  2.80D-02  3.15D+00    3.65004D-02
         4    2.83825D-02  0.00D+00  2.84D-02  3.18D+00    5.47506D-02
         5    2.88724D-02  0.00D+00  2.89D-02  3.23D+00    7.30008D-02
         6    2.95205D-02  0.00D+00  2.95D-02  3.28D+00    9.12509D-02
         7    3.03412D-02  0.00D+00  3.03D-02  3.35D+00    1.09501D-01
         8    3.13531D-02  0.00D+00  3.14D-02  3.43D+00    1.27751D-01
         9    3.25791D-02  0.00D+00  3.26D-02  3.54D+00    1.46002D-01

 ** RSPCTL MICROITERATION NUMBER    4

       No.  Residual tot.,    conf., and orb.    Bnorm      Frequency 
      ----------------------------------------------------------------
         1    2.00291D-03  0.00D+00  2.00D-03  3.13D+00    0.00000D+00
         2    2.01146D-03  0.00D+00  2.01D-03  3.13D+00    1.82502D-02
         3    2.03737D-03  0.00D+00  2.04D-03  3.15D+00    3.65004D-02
         4    2.08137D-03  0.00D+00  2.08D-03  3.18D+00    5.47506D-02
         5    2.14473D-03  0.00D+00  2.14D-03  3.23D+00    7.30008D-02
         6    2.22931D-03  0.00D+00  2.23D-03  3.28D+00    9.12509D-02
         7    2.33767D-03  0.00D+00  2.34D-03  3.35D+00    1.09501D-01
         8    2.47320D-03  0.00D+00  2.47D-03  3.43D+00    1.27751D-01
         9    2.64035D-03  0.00D+00  2.64D-03  3.54D+00    1.46002D-01

 *** THE REQUESTED    9 SOLUTION VECTORS CONVERGED

 Convergence of RSP solution vectors, threshold = 1.00D-03
 ---------------------------------------------------------------
 (dimension of paired reduced space:   72)
 RSP solution vector no.    1; norm of residual   6.40D-04
 RSP solution vector no.    2; norm of residual   6.42D-04
 RSP solution vector no.    3; norm of residual   6.46D-04
 RSP solution vector no.    4; norm of residual   6.54D-04
 RSP solution vector no.    5; norm of residual   6.65D-04
 RSP solution vector no.    6; norm of residual   6.80D-04
 RSP solution vector no.    7; norm of residual   6.98D-04
 RSP solution vector no.    8; norm of residual   7.20D-04
 RSP solution vector no.    9; norm of residual   7.47D-04

 *** RSPCTL MICROITERATIONS CONVERGED


           Final output of second order properties from linear response
           ------------------------------------------------------------


@ Spin symmetry of operators: singlet

 Note that minus the linear response function: - << A; B >>(omega) is printed.
 The results are of quadratic accuracy using Sellers formula.

@ FREQUENCY INDEPENDENT SECOND ORDER PROPERTIES

@ -<< ZDIPLEN  ; ZDIPLEN  >> =  1.503567193057E+01

@ FREQUENCY DEPENDENT SECOND ORDER PROPERTIES WITH FREQUENCY :

@    a.u.:  1.8250188D-02
@    cm-1:  4.0054531D+03
@    eV  :  4.9661286D-01
@  kJ/mol:  4.7915860D+01
@    nm  :  2.4965964D+03

@ -<< ZDIPLEN  ; ZDIPLEN  >> =  1.504962901550E+01

@ FREQUENCY DEPENDENT SECOND ORDER PROPERTIES WITH FREQUENCY :

@    a.u.:  3.6500375D-02
@    cm-1:  8.0109063D+03
@    eV  :  9.9322573D-01
@  kJ/mol:  9.5831720D+01
@    nm  :  1.2482982D+03

@ -<< ZDIPLEN  ; ZDIPLEN  >> =  1.509168909608E+01

@ FREQUENCY DEPENDENT SECOND ORDER PROPERTIES WITH FREQUENCY :

@    a.u.:  5.4750563D-02
@    cm-1:  1.2016359D+04
@    eV  :  1.4898386D+00
@  kJ/mol:  1.4374758D+02
@    nm  :  8.3219881D+02

@ -<< ZDIPLEN  ; ZDIPLEN  >> =  1.516242550275E+01

@ FREQUENCY DEPENDENT SECOND ORDER PROPERTIES WITH FREQUENCY :

@    a.u.:  7.3000750D-02
@    cm-1:  1.6021813D+04
@    eV  :  1.9864515D+00
@  kJ/mol:  1.9166344D+02
@    nm  :  6.2414911D+02

@ -<< ZDIPLEN  ; ZDIPLEN  >> =  1.526281710998E+01

@ FREQUENCY DEPENDENT SECOND ORDER PROPERTIES WITH FREQUENCY :

@    a.u.:  9.1250938D-02
@    cm-1:  2.0027266D+04
@    eV  :  2.4830643D+00
@  kJ/mol:  2.3957930D+02
@    nm  :  4.9931929D+02

@ -<< ZDIPLEN  ; ZDIPLEN  >> =  1.539428505850E+01

@ FREQUENCY DEPENDENT SECOND ORDER PROPERTIES WITH FREQUENCY :

@    a.u.:  1.0950113D-01
@    cm-1:  2.4032719D+04
@    eV  :  2.9796772D+00
@  kJ/mol:  2.8749516D+02
@    nm  :  4.1609940D+02

@ -<< ZDIPLEN  ; ZDIPLEN  >> =  1.555874784913E+01

@ FREQUENCY DEPENDENT SECOND ORDER PROPERTIES WITH FREQUENCY :

@    a.u.:  1.2775131D-01
@    cm-1:  2.8038172D+04
@    eV  :  3.4762900D+00
@  kJ/mol:  3.3541102D+02
@    nm  :  3.5665663D+02

@ -<< ZDIPLEN  ; ZDIPLEN  >> =  1.575869901536E+01

@ FREQUENCY DEPENDENT SECOND ORDER PROPERTIES WITH FREQUENCY :

@    a.u.:  1.4600150D-01
@    cm-1:  3.2043625D+04
@    eV  :  3.9729029D+00
@  kJ/mol:  3.8332688D+02
@    nm  :  3.1207455D+02

@ -<< ZDIPLEN  ; ZDIPLEN  >> =  1.599731364001E+01


 Time used in linear response calculation is     14.36 CPU seconds for symmetry 5

  Total CPU  time used in RESPONSE:  42.83 seconds
  Total wall time used in RESPONSE:  42.86 seconds


                   .-------------------------------------------.
                   | End of Dynamic Property Section (RESPONS) |
                   `-------------------------------------------'

  Total CPU  time used in DALTON:  58.58 seconds
  Total wall time used in DALTON:  58.64 seconds

 
     Date and time (Linux)  : Wed Jan 11 14:18:47 2023
     Host name              : cn020                                   
