

     ************************************************************************
     *************** Dalton - An Electronic Structure Program ***************
     ************************************************************************

    This is output from DALTON release Dalton2020.0 (2020)
         ( Web site: http://daltonprogram.org )

   ----------------------------------------------------------------------------

    NOTE:
     
    Dalton is an experimental code for the evaluation of molecular
    properties using (MC)SCF, DFT, CI, and CC wave functions.
    The authors accept no responsibility for the performance of
    the code or for the correctness of the results.
     
    The code (in whole or part) is provided under a licence and
    is not to be reproduced for further distribution without
    the written permission of the authors or their representatives.
     
    See the home page "http://daltonprogram.org" for further information.
     
    If results obtained with this code are published,
    the appropriate citations would be both of:
     
       K. Aidas, C. Angeli, K. L. Bak, V. Bakken, R. Bast,
       L. Boman, O. Christiansen, R. Cimiraglia, S. Coriani,
       P. Dahle, E. K. Dalskov, U. Ekstroem,
       T. Enevoldsen, J. J. Eriksen, P. Ettenhuber, B. Fernandez,
       L. Ferrighi, H. Fliegl, L. Frediani, K. Hald, A. Halkier,
       C. Haettig, H. Heiberg, T. Helgaker, A. C. Hennum,
       H. Hettema, E. Hjertenaes, S. Hoest, I.-M. Hoeyvik,
       M. F. Iozzi, B. Jansik, H. J. Aa. Jensen, D. Jonsson,
       P. Joergensen, J. Kauczor, S. Kirpekar,
       T. Kjaergaard, W. Klopper, S. Knecht, R. Kobayashi, H. Koch,
       J. Kongsted, A. Krapp, K. Kristensen, A. Ligabue,
       O. B. Lutnaes, J. I. Melo, K. V. Mikkelsen, R. H. Myhre,
       C. Neiss, C. B. Nielsen, P. Norman, J. Olsen,
       J. M. H. Olsen, A. Osted, M. J. Packer, F. Pawlowski,
       T. B. Pedersen, P. F. Provasi, S. Reine, Z. Rinkevicius,
       T. A. Ruden, K. Ruud, V. Rybkin, P. Salek, C. C. M. Samson,
       A. Sanchez de Meras, T. Saue, S. P. A. Sauer,
       B. Schimmelpfennig, K. Sneskov, A. H. Steindal,
       K. O. Sylvester-Hvid, P. R. Taylor, A. M. Teale,
       E. I. Tellgren, D. P. Tew, A. J. Thorvaldsen, L. Thoegersen,
       O. Vahtras, M. A. Watson, D. J. D. Wilson, M. Ziolkowski
       and H. Agren,
       "The Dalton quantum chemistry program system",
       WIREs Comput. Mol. Sci. 2014, 4:269–284 (doi: 10.1002/wcms.1172)
     
    and
     
       Dalton, a molecular electronic structure program,
       Release Dalton2020.0 (2020), see http://daltonprogram.org
   ----------------------------------------------------------------------------

    Authors in alphabetical order (Major contribution(s) in parenthesis):

  Kestutis Aidas,           Vilnius University,           Lithuania   (QM/MM)
  Celestino Angeli,         University of Ferrara,        Italy       (NEVPT2)
  Keld L. Bak,              UNI-C,                        Denmark     (AOSOPPA, non-adiabatic coupling, magnetic properties)
  Vebjoern Bakken,          University of Oslo,           Norway      (DALTON; geometry optimizer, symmetry detection)
  Radovan Bast,             UiT The Arctic U. of Norway,  Norway      (DALTON installation and execution frameworks)
  Pablo Baudin,             University of Valencia,       Spain       (Cholesky excitation energies)
  Linus Boman,              NTNU,                         Norway      (Cholesky decomposition and subsystems)
  Bruno N. Cabral Tenorio,  Technical Univ. of Denmark,   Denmark     (Lanczos-based CC methods)
  Ove Christiansen,         Aarhus University,            Denmark     (CC module)
  Renzo Cimiraglia,         University of Ferrara,        Italy       (NEVPT2)
  Sonia Coriani,            Technical Univ. of Denmark,   Denmark     (CC and RESPONS modules)
  Janusz Cukras,            University of Warsaw,         Poland      (MChD in RESPONS)
  Paal Dahle,               University of Oslo,           Norway      (Parallelization)
  Erik K. Dalskov,          UNI-C,                        Denmark     (SOPPA)
  Thomas Enevoldsen,        Univ. of Southern Denmark,    Denmark     (SOPPA)
  Janus J. Eriksen,         Aarhus University,            Denmark     (Polarizable embedding, TDA)
  Rasmus Faber,             Technical Univ. of Denmark,   Denmark     (Vib.avg. NMR w. SOPPA, parallel AO-SOPPA, CVS-CC and EOMCC)
  Tobias Fahleson,          KTH Stockholm,                Sweden      (Damped cubic response)
  Berta Fernandez,          U. of Santiago de Compostela, Spain       (Doublet spin, ESR in RESPONS)
  Lara Ferrighi,            Aarhus University,            Denmark     (PCM Cubic response)
  Heike Fliegl,             University of Oslo,           Norway      (CCSD(R12))
  Luca Frediani,            UiT The Arctic U. of Norway,  Norway      (PCM)
  Emmanuel Fromager,        Univ. Strasbourg,             France      (MC-srDFT)
  Bin Gao,                  UiT The Arctic U. of Norway,  Norway      (Gen1Int library)
  Andre S. P. Gomes,        CNRS/Universite de Lille,     France      (Frozen density embedding)
  Christof Haettig,         Ruhr-University Bochum,       Germany     (CC module)
  Kasper Hald,              Aarhus University,            Denmark     (CC module)
  Asger Halkier,            Aarhus University,            Denmark     (CC module)
  Frederik Beyer Hansen,    University of Copenhagen,     Denmark     (Parallel AO-SOPPA)
  Erik D. Hedegaard,        Univ. of Southern Denmark,    Denmark     (Polarizable embedding, QM/MM, and MC-srDFT)
  Hanne Heiberg,            University of Oslo,           Norway      (Geometry analysis, selected one-electron integrals)
  Trygve Helgaker,          University of Oslo,           Norway      (DALTON; ABACUS, ERI, DFT modules, London, and much more)
  Alf Christian Hennum,     University of Oslo,           Norway      (Parity violation)
  Hinne Hettema,            University of Auckland,       New Zealand (Quadratic response in RESPONS; SIRIUS supersymmetry)
  Eirik Hjertenaes,         NTNU,                         Norway      (Cholesky decomposition)
  Pi A. B. Haase,           University of Copenhagen,     Denmark     (Triplet AO-SOPPA)
  Maria Francesca Iozzi,    University of Oslo,           Norway      (RPA)
  Christoph Jacob           TU Braunschweig               Germany     (Frozen density embedding)
  Brano Jansik              Technical Univ. of Ostrava    Czech Rep.  (DFT cubic response)
  Hans Joergen Aa. Jensen,  Univ. of Southern Denmark,    Denmark     (DALTON; SIRIUS, RESPONS, ABACUS, MC-srDFT, and much more)
  Dan Jonsson,              UiT The Arctic U. of Norway,  Norway      (Cubic response in RESPONS module)
  Poul Joergensen,          Aarhus University,            Denmark     (RESPONS, ABACUS, and CC modules)
  Maciej Kaminski,          University of Warsaw,         Poland      (CPPh in RESPONS)
  Joanna Kauczor,           Linkoeping University,        Sweden      (Complex polarization propagator (CPP) module)
  Sheela Kirpekar,          Univ. of Southern Denmark,    Denmark     (Mass-velocity & Darwin integrals)
  Erik Kjellgren,           Univ. of Southern Denmark,    Denmark     (MC-srDFT)
  Wim Klopper,              KIT Karlsruhe,                Germany     (R12 code in CC, SIRIUS, and ABACUS modules)
  Stefan Knecht,            ETH Zurich,                   Switzerland (Parallel CI and MCSCF, MC-srDFT)
  Rika Kobayashi,           Australian National Univ.,    Australia   (DIIS in CC, London in MCSCF)
  Henrik Koch,              NTNU,                         Norway      (CC module, Cholesky decomposition)
  Jacob Kongsted,           Univ. of Southern Denmark,    Denmark     (Polarizable embedding, polarizable density embedding, QM/MM)
  Andrea Ligabue,           University of Modena,         Italy       (CTOCD, AOSOPPA)
  Nanna H. List             Univ. of Southern Denmark,    Denmark     (Polarizable embedding)
  Ola B. Lutnaes,           University of Oslo,           Norway      (DFT Hessian)
  Juan I. Melo,             University of Buenos Aires,   Argentina   (LRESC, Relativistic Effects on NMR Shieldings)
  Kurt V. Mikkelsen,        University of Copenhagen,     Denmark     (MC-SCRF and QM/MM)
  Rolf H. Myhre,            NTNU,                         Norway      (Subsystems and CC3)
  Christian Neiss,          Univ. Erlangen-Nuernberg,     Germany     (CCSD(R12))
  Christian B. Nielsen,     University of Copenhagen,     Denmark     (QM/MM)
  Patrick Norman,           KTH Stockholm,                Sweden      (Cubic response and complex frequency response in RESPONS)
  Jeppe Olsen,              Aarhus University,            Denmark     (SIRIUS CI/density modules)
  Jogvan Magnus H. Olsen,   Aarhus University,            Denmark     (Polarizable embedding and polarizable density embedding)
  Anders Osted,             Copenhagen University,        Denmark     (QM/MM)
  Martin J. Packer,         University of Sheffield,      UK          (SOPPA)
  Filip Pawlowski,          Kazimierz Wielki University,  Poland      (CC3)
  Morten N. Pedersen,       Univ. of Southern Denmark,    Denmark     (Polarizable embedding)
  Thomas B. Pedersen,       University of Oslo,           Norway      (Cholesky decomposition)
  Patricio F. Provasi,      University of Northeastern,   Argentina   (Analysis of coupling constants in localized orbitals)
  Peter Reinholdt,          Univ. of Southern Denmark,    Denmark     (Polarizable embedding and polarizable density embedding)
  Zilvinas Rinkevicius,     KTH Stockholm,                Sweden      (open-shell DFT, ESR)
  Elias Rudberg,            KTH Stockholm,                Sweden      (DFT grid and basis info)
  Torgeir A. Ruden,         University of Oslo,           Norway      (Numerical derivatives in ABACUS)
  Kenneth Ruud,             UiT The Arctic U. of Norway,  Norway      (DALTON; ABACUS magnetic properties and much more)
  Pawel Salek,              KTH Stockholm,                Sweden      (DALTON; DFT code)
  Claire C. M. Samson       University of Karlsruhe       Germany     (Boys localization, r12 integrals in ERI)
  Alfredo Sanchez de Meras, University of Valencia,       Spain       (CC module, Cholesky decomposition)
  Trond Saue,               Paul Sabatier University,     France      (direct Fock matrix construction)
  Stephan P. A. Sauer,      University of Copenhagen,     Denmark     (SOPPA(CCSD), SOPPA prop., AOSOPPA, vibrational g-factors)
  Bernd Schimmelpfennig,    Forschungszentrum Karlsruhe,  Germany     (AMFI module)
  Anna K. Schnack-Petersen, University of Copenhagen,     Denmark     (RPA(D) and HRPA(D) properties in AOSOPPA)
  Kristian Sneskov,         Aarhus University,            Denmark     (Polarizable embedding, QM/MM)
  Arnfinn H. Steindal,      UiT The Arctic U. of Norway,  Norway      (parallel QM/MM, polarizable embedding)
  Casper Steinmann,         Aalborg University,           Denmark     (QFIT, polarizable embedding)
  K. O. Sylvester-Hvid,     University of Copenhagen,     Denmark     (MC-SCRF)
  Peter R. Taylor,          VLSCI/Univ. of Melbourne,     Australia   (Symmetry handling ABACUS, integral transformation)
  Andrew M. Teale,          University of Nottingham,     England     (DFT-AC, DFT-D)
  David P. Tew,             University of Bristol,        England     (CCSD(R12))
  Julien Toulouse,          Sorbonne Univ.,               France      (MC-srDFT)
  Olav Vahtras,             KTH Stockholm,                Sweden      (Triplet response, spin-orbit, ESR, TDDFT, open-shell DFT)
  Lucas Visscher,           Vrije Universiteit Amsterdam, Netherlands (Frozen density embedding)
  David J. Wilson,          La Trobe University,          Australia   (DFT Hessian and DFT magnetizabilities)
  Hans Agren,               KTH Stockholm,                Sweden      (SIRIUS module, RESPONS, MC-SCRF solvation)
 --------------------------------------------------------------------------------

     Date and time (Linux)  : Wed Jan 11 14:24:22 2023
     Host name              : cn020                                   

 * Work memory size             :    64000000 =  488.28 megabytes.

 * Directories for basis set searches:
   1) /gpfs/projects/rjh/adrian/fd_compare/dalton/hf/N2/dipole
   2) /gpfs/projects/rjh/adrian/dalton/build/basis


Compilation information
-----------------------

 Who compiled             | ahurtado
 Host                     | sn-mem
 System                   | Linux-3.10.0-1160.24.1.el7.x86_64
 CMake generator          | Unix Makefiles
 Processor                | x86_64
 64-bit integers          | OFF
 MPI                      | ON
 Fortran compiler         | /gpfs/software/intel/oneAPI/2021_4/mpi/2021.4.0/bi
                          | n/mpif90
 Fortran compiler version | GNU Fortran (GCC) 11.2.0
 C compiler               | /gpfs/software/intel/oneAPI/2021_4/mpi/2021.4.0/bi
                          | n/mpicc
 C compiler version       | gcc (GCC) 11.2.0
 C++ compiler             | /gpfs/software/intel/oneAPI/2021_4/mpi/2021.4.0/bi
                          | n/mpicxx
 C++ compiler version     | unknown
 BLAS                     | /gpfs/software/intel/oneAPI/2021_4/mkl/2021.4.0/li
                          | b/intel64/libmkl_gf_lp64.so;/gpfs/software/intel/o
                          | neAPI/2021_4/mkl/2021.4.0/lib/intel64/libmkl_seque
                          | ntial.so;/gpfs/software/intel/oneAPI/2021_4/mkl/20
                          | 21.4.0/lib/intel64/libmkl_core.so;/usr/lib64/libpt
                          | hread.so;/usr/lib64/libm.so
 LAPACK                   | /gpfs/software/intel/oneAPI/2021_4/mkl/2021.4.0/li
                          | b/intel64/libmkl_lapack95_lp64.a;/gpfs/software/in
                          | tel/oneAPI/2021_4/mkl/2021.4.0/lib/intel64/libmkl_
                          | gf_lp64.so
 Static linking           | OFF
 Last Git revision        | 66052b3af5ea7225e31178bf9a8b031913c72190
 Git branch               | (HEAD detached at Dalton2020.0)
 Configuration time       | 2023-01-11 13:33:37.731835

 * MPI parallel run using 20 processes.


   Content of the .dal input file
 ----------------------------------

**DALTON INPUT
.RUN RESPONSE
.DIRECT
**WAVE FUNCTIONS
.HF
**RESPONSE
*LINEAR
.DIPLEN
.FREQUENCIES
9
0.0 0.0182501875 0.036500375 0.0547505625 0.07300075 0.0912509375 0.109501125 0.1277513125 0.1460015
**END OF DALTON INPUT


   Content of the .mol file
 ----------------------------

BASIS
aug-cc-pCVTZ
blah
blah
Atomtype=1 Atomic
Charge=7 Atoms=2
N_a 0.000000000000 0.000000000000 0.000000000000
N_b 0.000000000000 0.000000000000 2.074320000000


       *******************************************************************
       *********** Output from DALTON general input processing ***********
       *******************************************************************

 --------------------------------------------------------------------------------
   Overall default print level:    0
   Print level for DALTON.STAT:    1

    Parallel calculation using MPI
    AO-direct calculation (in sections where implemented)
    HERMIT 1- and 2-electron integral sections will be executed
    "Old" integral transformation used (limited to max 255 basis functions)
    Wave function sections will be executed (SIRIUS module)
    Dynamic molecular response properties section will be executed (RESPONSE module)
 --------------------------------------------------------------------------------


   ****************************************************************************
   *************** Output of molecule and basis set information ***************
   ****************************************************************************


    The two title cards from your ".mol" input:
    ------------------------------------------------------------------------
 1: blah                                                                    
 2: blah                                                                    
    ------------------------------------------------------------------------

  Atomic type no.    1
  --------------------
  Nuclear charge:   7.00000
  Number of symmetry independent centers:    2
  Number of basis sets to read;    2
  Basis set file used for this atomic type with Z =   7 :
     "/gpfs/projects/rjh/adrian/dalton/build/basis/aug-cc-pCVTZ"


                      SYMADD: Requested addition of symmetry
                      --------------------------------------

 Symmetry test threshold:  5.00E-06

@   The molecule is centered at center of mass and rotated
@   so principal axes of inertia are along coordinate axes.

 Symmetry class found: D(oo,h)        

 Symmetry Independent Centres             
 ----------------------------
N_b    7 :      0.00000000     0.00000000     1.03716000  Isotope  1

 The following symmetry elements were found:   X  Y  Z  


                         SYMGRP: Point group information
                         -------------------------------

@    Full point group is: D(oo,h)        
@    Represented as:      D2h

@  * The irrep name for each symmetry:    1: Ag     2: B3u    3: B2u    4: B1g    5: B1u    6: B2g    7: B3g    8: Au 


   * The point group was generated by:

      Reflection in the yz-plane
      Reflection in the xz-plane
      Reflection in the xy-plane

   * Group multiplication table

        |  E   C2z  C2y  C2x   i   Oxy  Oxz  Oyz
   -----+----------------------------------------
     E  |  E   C2z  C2y  C2x   i   Oxy  Oxz  Oyz
    C2z | C2z   E   C2x  C2y  Oxy   i   Oyz  Oxz
    C2y | C2y  C2x   E   C2z  Oxz  Oyz   i   Oxy
    C2x | C2x  C2y  C2z   E   Oyz  Oxz  Oxy   i 
     i  |  i   Oxy  Oxz  Oyz   E   C2z  C2y  C2x
    Oxy | Oxy   i   Oyz  Oxz  C2z   E   C2x  C2y
    Oxz | Oxz  Oyz   i   Oxy  C2y  C2x   E   C2z
    Oyz | Oyz  Oxz  Oxy   i   C2x  C2y  C2z   E 

   * Character table

        |  E   C2z  C2y  C2x   i   Oxy  Oxz  Oyz
   -----+----------------------------------------
    Ag  |   1    1    1    1    1    1    1    1
    B3u |   1   -1   -1    1   -1    1    1   -1
    B2u |   1   -1    1   -1   -1    1   -1    1
    B1g |   1    1   -1   -1    1    1   -1   -1
    B1u |   1    1   -1   -1   -1   -1    1    1
    B2g |   1   -1    1   -1    1   -1    1   -1
    B3g |   1   -1   -1    1    1   -1   -1    1
    Au  |   1    1    1    1   -1   -1   -1   -1

   * Direct product table

        | Ag   B3u  B2u  B1g  B1u  B2g  B3g  Au 
   -----+----------------------------------------
    Ag  | Ag   B3u  B2u  B1g  B1u  B2g  B3g  Au 
    B3u | B3u  Ag   B1g  B2u  B2g  B1u  Au   B3g
    B2u | B2u  B1g  Ag   B3u  B3g  Au   B1u  B2g
    B1g | B1g  B2u  B3u  Ag   Au   B3g  B2g  B1u
    B1u | B1u  B2g  B3g  Au   Ag   B3u  B2u  B1g
    B2g | B2g  B1u  Au   B3g  B3u  Ag   B1g  B2u
    B3g | B3g  Au   B1u  B2g  B2u  B1g  Ag   B3u
    Au  | Au   B3g  B2g  B1u  B1g  B2u  B3u  Ag 


                                 Isotopic Masses
                                 ---------------

                           N_b _1     14.003074
                           N_b _2     14.003074

                       Total mass:    28.006148 amu
                       Natural abundance:  99.261 %

 Center-of-mass coordinates (a.u.):    0.000000    0.000000    0.000000
 Center-of-mass coordinates (Angs):    0.000000    0.000000    0.000000


  Atoms and basis sets
  --------------------

  Number of atom types :    1
  Total number of atoms:    2

  Basis set used is "aug-cc-pCVTZ" from the basis set library.

  label    atoms   charge   prim   cont     basis
  ----------------------------------------------------------------------
  N_          2    7.0000    71    59      [13s8p4d2f|7s6p4d2f]                               
  ----------------------------------------------------------------------
  total:      2   14.0000   142   118
  ----------------------------------------------------------------------
  Spherical harmonic basis used.

  Threshold for neglecting AO integrals:  1.00D-12


  Cartesian Coordinates (a.u.)
  ----------------------------

  Total number of coordinates:    6
  N_b / 1 :     1  x   0.0000000000    2  y   0.0000000000    3  z   1.0371600000
  N_b / 2 :     4  x   0.0000000000    5  y   0.0000000000    6  z  -1.0371600000


  Symmetry Coordinates
  --------------------

  Number of coordinates in each symmetry:     1    1    1    0    1    1    1    0

  Symmetry  Ag  ( 1)

    1   N_b   z    [  3  -    6 ]/2

  Symmetry  B3u ( 2)

    2   N_b   x    [  1  +    4 ]/2

  Symmetry  B2u ( 3)

    3   N_b   y    [  2  +    5 ]/2

  Symmetry  B1u ( 5)

    4   N_b   z    [  3  +    6 ]/2

  Symmetry  B2g ( 6)

    5   N_b   x    [  1  -    4 ]/2

  Symmetry  B3g ( 7)

    6   N_b   y    [  2  -    5 ]/2


   Interatomic separations (in Angstrom):
   --------------------------------------

            N_b _1      N_b _2
            ------      ------
 N_b _1:    0.000000
 N_b _2:    1.097683    0.000000


  Max    interatomic separation is    1.0977 Angstrom (    2.0743 Bohr)
  between atoms    2 and    1, "N_b _2" and "N_b _1".

  Min YX interatomic separation is    1.0977 Angstrom (    2.0743 Bohr)


  Bond distances (Angstrom):
  --------------------------

                  atom 1     atom 2       distance
                  ------     ------       --------
  bond distance:  N_b _2     N_b _1       1.097683




 Principal moments of inertia (u*A**2) and principal axes
 --------------------------------------------------------

   IA       0.000000          0.000000    0.000000    1.000000
   IB       8.436206          0.000000    1.000000    0.000000
   IC       8.436206          1.000000    0.000000    0.000000


 Rotational constants
 --------------------

@    The molecule is linear.

               B =        59905.96 MHz     (    1.998248 cm-1)


@  Nuclear repulsion energy :   23.622199082109 Hartree


  Symmetry Orbitals
  -----------------

  Number of orbitals in each symmetry:          25   14   14    6   25   14   14    6


  Symmetry  Ag ( 1)

    1     N_b      1s         1 +    2
    2     N_b      1s         3 +    4
    3     N_b      1s         5 +    6
    4     N_b      1s         7 +    8
    5     N_b      1s         9 +   10
    6     N_b      1s        11 +   12
    7     N_b      1s        13 +   14
    8     N_b      2pz       19 -   20
    9     N_b      2pz       25 -   26
   10     N_b      2pz       31 -   32
   11     N_b      2pz       37 -   38
   12     N_b      2pz       43 -   44
   13     N_b      2pz       49 -   50
   14     N_b      3d0       55 +   56
   15     N_b      3d2+      59 +   60
   16     N_b      3d0       65 +   66
   17     N_b      3d2+      69 +   70
   18     N_b      3d0       75 +   76
   19     N_b      3d2+      79 +   80
   20     N_b      3d0       85 +   86
   21     N_b      3d2+      89 +   90
   22     N_b      4f0       97 -   98
   23     N_b      4f2+     101 -  102
   24     N_b      4f0      111 -  112
   25     N_b      4f2+     115 -  116


  Symmetry  B3u( 2)

   26     N_b      2px       15 +   16
   27     N_b      2px       21 +   22
   28     N_b      2px       27 +   28
   29     N_b      2px       33 +   34
   30     N_b      2px       39 +   40
   31     N_b      2px       45 +   46
   32     N_b      3d1+      57 -   58
   33     N_b      3d1+      67 -   68
   34     N_b      3d1+      77 -   78
   35     N_b      3d1+      87 -   88
   36     N_b      4f1+      99 +  100
   37     N_b      4f3+     103 +  104
   38     N_b      4f1+     113 +  114
   39     N_b      4f3+     117 +  118


  Symmetry  B2u( 3)

   40     N_b      2py       17 +   18
   41     N_b      2py       23 +   24
   42     N_b      2py       29 +   30
   43     N_b      2py       35 +   36
   44     N_b      2py       41 +   42
   45     N_b      2py       47 +   48
   46     N_b      3d1-      53 -   54
   47     N_b      3d1-      63 -   64
   48     N_b      3d1-      73 -   74
   49     N_b      3d1-      83 -   84
   50     N_b      4f3-      91 +   92
   51     N_b      4f1-      95 +   96
   52     N_b      4f3-     105 +  106
   53     N_b      4f1-     109 +  110


  Symmetry  B1g( 4)

   54     N_b      3d2-      51 +   52
   55     N_b      3d2-      61 +   62
   56     N_b      3d2-      71 +   72
   57     N_b      3d2-      81 +   82
   58     N_b      4f2-      93 -   94
   59     N_b      4f2-     107 -  108


  Symmetry  B1u( 5)

   60     N_b      1s         1 -    2
   61     N_b      1s         3 -    4
   62     N_b      1s         5 -    6
   63     N_b      1s         7 -    8
   64     N_b      1s         9 -   10
   65     N_b      1s        11 -   12
   66     N_b      1s        13 -   14
   67     N_b      2pz       19 +   20
   68     N_b      2pz       25 +   26
   69     N_b      2pz       31 +   32
   70     N_b      2pz       37 +   38
   71     N_b      2pz       43 +   44
   72     N_b      2pz       49 +   50
   73     N_b      3d0       55 -   56
   74     N_b      3d2+      59 -   60
   75     N_b      3d0       65 -   66
   76     N_b      3d2+      69 -   70
   77     N_b      3d0       75 -   76
   78     N_b      3d2+      79 -   80
   79     N_b      3d0       85 -   86
   80     N_b      3d2+      89 -   90
   81     N_b      4f0       97 +   98
   82     N_b      4f2+     101 +  102
   83     N_b      4f0      111 +  112
   84     N_b      4f2+     115 +  116


  Symmetry  B2g( 6)

   85     N_b      2px       15 -   16
   86     N_b      2px       21 -   22
   87     N_b      2px       27 -   28
   88     N_b      2px       33 -   34
   89     N_b      2px       39 -   40
   90     N_b      2px       45 -   46
   91     N_b      3d1+      57 +   58
   92     N_b      3d1+      67 +   68
   93     N_b      3d1+      77 +   78
   94     N_b      3d1+      87 +   88
   95     N_b      4f1+      99 -  100
   96     N_b      4f3+     103 -  104
   97     N_b      4f1+     113 -  114
   98     N_b      4f3+     117 -  118


  Symmetry  B3g( 7)

   99     N_b      2py       17 -   18
  100     N_b      2py       23 -   24
  101     N_b      2py       29 -   30
  102     N_b      2py       35 -   36
  103     N_b      2py       41 -   42
  104     N_b      2py       47 -   48
  105     N_b      3d1-      53 +   54
  106     N_b      3d1-      63 +   64
  107     N_b      3d1-      73 +   74
  108     N_b      3d1-      83 +   84
  109     N_b      4f3-      91 -   92
  110     N_b      4f1-      95 -   96
  111     N_b      4f3-     105 -  106
  112     N_b      4f1-     109 -  110


  Symmetry  Au ( 8)

  113     N_b      3d2-      51 -   52
  114     N_b      3d2-      61 -   62
  115     N_b      3d2-      71 -   72
  116     N_b      3d2-      81 -   82
  117     N_b      4f2-      93 +   94
  118     N_b      4f2-     107 +  108

  Symmetries of electric field:  B3u(2)  B2u(3)  B1u(5)

  Symmetries of magnetic field:  B3g(7)  B2g(6)  B1g(4)


                     .---------------------------------------.
                     | Starting in Integral Section (HERMIT) |
                     `---------------------------------------'



 ***************************************************************************************
 ****************** Output from **INTEGRALS input processing (HERMIT) ******************
 ***************************************************************************************


 - Using defaults, no **INTEGRALS input found

 Default print level:        1

 Calculation of one-electron Hamiltonian integrals.

 Center of mass  (bohr):      0.000000000000      0.000000000000      0.000000000000
 Operator center (bohr):      0.000000000000      0.000000000000      0.000000000000
 Gauge origin    (bohr):      0.000000000000      0.000000000000      0.000000000000
 Dipole origin   (bohr):      0.000000000000      0.000000000000      0.000000000000


     ************************************************************************
     ************************** Output from HERINT **************************
     ************************************************************************



                      Nuclear contribution to dipole moments
                      --------------------------------------

                    All dipole components are zero by symmetry


  Total CPU  time used in HERMIT:   0.10 seconds
  Total wall time used in HERMIT:   0.10 seconds


                        .----------------------------------.
                        | End of Integral Section (HERMIT) |
                        `----------------------------------'



                   .--------------------------------------------.
                   | Starting in Wave Function Section (SIRIUS) |
                   `--------------------------------------------'


 *** Output from Huckel module :

     Using EWMO model:          F
     Using EHT  model:          T
     Number of Huckel orbitals each symmetry:    3    1    1    0    3    1    1    0

 Huckel EHT eigenvalues for symmetry :  1
          -15.703205      -1.363953      -0.476809

 Huckel EHT eigenvalues for symmetry :  2
           -0.648566

 Huckel EHT eigenvalues for symmetry :  3
           -0.648566

 Huckel EHT eigenvalues for symmetry :  5
          -15.694742      -0.814285      -0.224605

 Huckel EHT eigenvalues for symmetry :  6
           -0.368834

 Huckel EHT eigenvalues for symmetry :  7
           -0.368834

 **********************************************************************
 *SIRIUS* a direct, restricted step, second order MCSCF program       *
 **********************************************************************

 
     Date and time (Linux)  : Wed Jan 11 14:24:22 2023
     Host name              : cn020                                   

 Title lines from ".mol" input file:
     blah                                                                    
     blah                                                                    

 Print level on unit LUPRI =   2 is   0
 Print level on unit LUW4  =   2 is   5

@    Restricted, closed shell Hartree-Fock calculation.

@    Time-dependent Hartree-Fock calculation (random phase approximation).
 Fock matrices are calculated directly and in parallel without use of integrals on disk.

 Initial molecular orbitals are obtained according to
 ".MOSTART EHT   " input option

     Wave function specification
     ============================
@    Wave function type        --- HF ---
@    Number of closed shell electrons          14
@    Number of electrons in active shells       0
@    Total charge of the molecule               0

@    Spin multiplicity and 2 M_S                1         0
@    Total number of symmetries                 8 (point group: D2h)
@    Reference state symmetry                   1 (irrep name : Ag )

     Orbital specifications
     ======================
@    Abelian symmetry species          All |    1    2    3    4    5    6    7    8
@                                          |  Ag   B3u  B2u  B1g  B1u  B2g  B3g  Au 
                                       --- |  ---  ---  ---  ---  ---  ---  ---  ---
@    Total number of orbitals          118 |   25   14   14    6   25   14   14    6
@    Number of basis functions         118 |   25   14   14    6   25   14   14    6

      ** Automatic occupation of RHF orbitals **

      -- Initial occupation of symmetries is determined from extended Huckel guess.           
      -- Initial occupation of symmetries is :
@    Occupied SCF orbitals               7 |    3    1    1    0    2    0    0    0

     Maximum number of Fock   iterations      0
     Maximum number of DIIS   iterations     60
     Maximum number of QC-SCF iterations     60
     Threshold for SCF convergence     1.00D-05


 ***********************************************
 ***** DIIS acceleration of SCF iterations *****
 ***********************************************

 C1-DIIS algorithm; max error vectors =    8

 Automatic occupation of symmetries with  14 electrons.

 Iter     Total energy    Error norm  Delta(E)    SCF occupation
 -----------------------------------------------------------------------------
   1  Screening settings (-IFTHRS, JTDIIS, DIFDEN, times)   -7    1    T  1.60D-01  1.60D-01
@  1  -108.647628690       3.20D+00  -1.09D+02     3   1   1   0   2   0   0   0
      Virial theorem: -V/T =      2.009159
@    MULPOP   N_b _1 -0.00; N_b _2 -0.00; 
   1  Level shift: doubly occupied orbital energies shifted by -2.00D-01
 -----------------------------------------------------------------------------
   2  Screening settings (-IFTHRS, JTDIIS, DIFDEN, times)   -7    2    T  1.41D-01  1.41D-01
@  2  -108.969938474       6.22D-01  -3.22D-01     3   1   1   0   2   0   0   0
      Virial theorem: -V/T =      1.996218
@    MULPOP   N_b _1  0.00; N_b _2  0.00; 
   2  Level shift: doubly occupied orbital energies shifted by -5.00D-02
 -----------------------------------------------------------------------------
   3  Screening settings (-IFTHRS, JTDIIS, DIFDEN, times)   -7    3    T  1.39D-01  1.39D-01
@  3  -108.984453773       1.17D-01  -1.45D-02     3   1   1   0   2   0   0   0
      Virial theorem: -V/T =      2.002567
@    MULPOP   N_b _1  0.00; N_b _2  0.00; 
   3  Level shift: doubly occupied orbital energies shifted by -1.25D-02
 -----------------------------------------------------------------------------
   4  Screening settings (-IFTHRS, JTDIIS, DIFDEN, times)  -11    4    F  1.43D-01  1.44D-01
@  4  -108.985607719       2.69D-02  -1.15D-03     3   1   1   0   2   0   0   0
      Virial theorem: -V/T =      2.001917
@    MULPOP   N_b _1  0.00; N_b _2  0.00; 
 -----------------------------------------------------------------------------
   5  Screening settings (-IFTHRS, JTDIIS, DIFDEN, times)  -11    5    T  1.33D-01  1.33D-01
@  5  -108.985680601       3.93D-03  -7.29D-05     3   1   1   0   2   0   0   0
      Virial theorem: -V/T =      2.002143
@    MULPOP   N_b _1 -0.00; N_b _2 -0.00; 
 -----------------------------------------------------------------------------
   6  Screening settings (-IFTHRS, JTDIIS, DIFDEN, times)  -11    6    T  1.21D-01  1.21D-01
@  6  -108.985682521       4.57D-04  -1.92D-06     3   1   1   0   2   0   0   0
      Virial theorem: -V/T =      2.002126
@    MULPOP   N_b _1 -0.00; N_b _2 -0.00; 
 -----------------------------------------------------------------------------
   7  Screening settings (-IFTHRS, JTDIIS, DIFDEN, times)  -11    7    T  1.20D-01  1.20D-01
@  7  -108.985682544       4.33D-05  -2.30D-08     3   1   1   0   2   0   0   0
      Virial theorem: -V/T =      2.002130
@    MULPOP   N_b _1  0.00; N_b _2  0.00; 
 -----------------------------------------------------------------------------
   8  Screening settings (-IFTHRS, JTDIIS, DIFDEN, times)  -11    8    T  1.19D-01  1.19D-01
@  8  -108.985682545       6.79D-06  -2.13D-10     3   1   1   0   2   0   0   0

@ *** DIIS converged in   8 iterations !
@     Converged SCF energy, gradient:   -108.985682544516    6.79D-06
    - total time used in SIRFCK :              0.00 seconds


 *** SCF orbital energy analysis ***

 Only the 20 lowest virtual orbital energies printed in each symmetry.

 Number of electrons :   14
 Orbital occupations :    3    1    1    0    2    0    0    0

 Sym       Hartree-Fock orbital energies

1 Ag    -15.68470132    -1.47240615    -0.63480209     0.11695879     0.15866823
          0.41345172     0.46375830     0.75581945     1.08447509     1.34110727
          1.66490629     1.70309959     2.20574621     3.89484379     3.98678099
          4.39634344     5.07327337     5.14408351     6.65372791    21.54962221
         22.74043636    39.04021037    39.05708924

2 B3u    -0.61439015     0.12528084     0.56917776     0.72945124     1.37185515
          1.47265748     2.15892248     3.18339677     4.52541996     4.66077643
          5.59087795    20.64293799    39.02880839   108.82348091

3 B2u    -0.61439015     0.12528084     0.56917776     0.72945124     1.37185515
          1.47265748     2.15892248     3.18339677     4.52541996     4.66077643
          5.59087795    20.64293799    39.02880839   108.82348091

4 B1g     0.41345172     1.34110727     1.70309959     4.39634344     5.07327337
         39.04021037

5 B1u   -15.68116597    -0.77983697     0.08265827     0.28088752     0.52950485
          0.58214924     0.74139724     1.07393825     1.57053156     1.57836207
          1.97160731     2.31599382     2.44191923     4.31551540     4.80702047
          5.15316366     5.74470489     5.77036906     8.68873473    21.51513355
         23.45599806    39.13445300

6 B2g     0.11760016     0.20927772     0.57856069     1.04987854     1.72016171
          1.72188250     2.43381649     4.20471833     5.04296231     5.33315959
          6.85600258    21.52871915    39.40327103   109.47835969

7 B3g     0.11760016     0.20927772     0.57856069     1.04987854     1.72016171
          1.72188250     2.43381649     4.20471833     5.04296231     5.33315959
          6.85600258    21.52871915    39.40327103   109.47835969

8 Au      0.58214924     1.57053156     2.31599382     5.15316366     5.74470489
         39.13445300

    E(LUMO) :     0.08265827 au (symmetry 5)
  - E(HOMO) :    -0.61439015 au (symmetry 3)
  ------------------------------------------
    gap     :     0.69704842 au

 --- Writing SIRIFC interface file

 CPU and wall time for SCF :       1.090       1.094


                       .-----------------------------------.
                       | --- Final results from SIRIUS --- |
                       `-----------------------------------'


@    Spin multiplicity:           1
@    Spatial symmetry:            1 ( irrep  Ag  in D2h )
@    Total charge of molecule:    0

@    Final HF energy:            -108.985682544516                 
@    Nuclear repulsion:            23.622199082109
@    Electronic energy:          -132.607881626625

@    Final gradient norm:           0.000006792778

 
     Date and time (Linux)  : Wed Jan 11 14:24:23 2023
     Host name              : cn020                                   

File label for MO orbitals:  11Jan23   FOCKDIIS

 (Only coefficients > 0.0100 are printed.)

 Molecular orbitals for symmetry species 1  (Ag )
 ------------------------------------------------

    Orbital         1        2        3        4        5        6        7
   1 N_b :1s     0.7062  -0.0362   0.0157   0.0019   0.1031   0.0000  -0.3217
   2 N_b :1s    -0.0018   0.5446   0.2906  -0.1255   0.5403  -0.0000  -1.2247
   3 N_b :1s     0.0016   0.0201  -0.0147  -0.0330  -0.0631  -0.0000   0.2584
   4 N_b :1s     0.0008  -0.1016   0.1255  -0.5353   0.9220   0.0000  -1.4078
   5 N_b :1s    -0.0005  -0.0124   0.0068   0.0060   0.0393   0.0000  -0.1337
   6 N_b :1s     0.0000  -0.0018   0.0005  -0.0018   0.0081   0.0000  -0.0224
   7 N_b :1s    -0.0001   0.0021   0.0224   0.9522  -0.5701  -0.0000   0.9215
   8 N_b :2pz   -0.0040  -0.3396   0.6957  -0.1474   0.0169  -0.0000  -0.0996
   9 N_b :2pz    0.0022   0.0424  -0.0473   0.0608  -0.0849   0.0000   0.2119
  10 N_b :2pz   -0.0000   0.0715  -0.0718  -0.3236   0.7980   0.0000  -1.8786
  13 N_b :2pz   -0.0004  -0.0003   0.0055   0.9272   2.0628  -0.0000  -1.7629
  16 N_b :3d0    0.0004   0.0186  -0.0177  -0.0048   0.0107   0.0000   0.0049
  17 N_b :3d2+   0.0000  -0.0000  -0.0000  -0.0000  -0.0000   0.0290  -0.0000
  18 N_b :3d0   -0.0000   0.0290  -0.0199   0.0449  -0.0591  -0.0000   0.2123
  19 N_b :3d2+  -0.0000  -0.0000  -0.0000   0.0000  -0.0000  -0.0521  -0.0000
  20 N_b :3d0    0.0009   0.0106  -0.0130   0.0550  -0.6435   0.0000   1.9609
  21 N_b :3d2+   0.0000   0.0000   0.0000  -0.0000   0.0000   0.5636  -0.0000
  24 N_b :4f0   -0.0000  -0.0055   0.0021  -0.0259   0.0913   0.0000  -0.2389

    Orbital         8        9       10       11       12       13
   1 N_b :1s     0.1802  -0.9904   0.0000   0.5487  -0.0000   1.8104
   2 N_b :1s     0.4942  -4.5532  -0.0000   2.3540   0.0000   7.8954
   3 N_b :1s    -0.0245   0.8835  -0.0000  -0.3476   0.0000  -1.2785
   4 N_b :1s     1.7697   1.4252  -0.0000  -0.6838  -0.0000  -3.3834
   5 N_b :1s     0.0579  -0.4154   0.0000   0.2162  -0.0000   0.7113
   6 N_b :1s     0.0218  -0.0619   0.0000   0.0422  -0.0000   0.1387
   7 N_b :1s    -1.0634   0.6282  -0.0000  -0.3688   0.0000  -0.8404
   8 N_b :2pz   -0.3620   0.1348  -0.0000  -0.0086   0.0000   0.5825
   9 N_b :2pz   -0.4652   0.3257   0.0000  -0.0222  -0.0000  -1.3595
  10 N_b :2pz    3.0154  -3.5225   0.0000   1.6862  -0.0000   5.1878
  13 N_b :2pz    0.1850  -0.9992  -0.0000   0.5691   0.0000   0.5182
  16 N_b :3d0    0.0540  -0.0572  -0.0000   0.0212  -0.0000   0.0550
  17 N_b :3d2+  -0.0000   0.0000  -0.0047  -0.0000  -0.0137   0.0000
  18 N_b :3d0   -0.3686   0.1972  -0.0000   0.0893   0.0000  -1.8953
  19 N_b :3d2+   0.0000   0.0000  -0.6579  -0.0000   0.5138  -0.0000
  20 N_b :3d0   -1.1373   2.2526   0.0000  -1.1345  -0.0000  -2.2729
  21 N_b :3d2+  -0.0000  -0.0000   0.3738   0.0000  -0.1380   0.0000
  22 N_b :4f0    0.0098  -0.0156   0.0000  -0.0578  -0.0000   0.0852
  23 N_b :4f2+   0.0000  -0.0000  -0.0182   0.0000  -0.0772  -0.0000
  24 N_b :4f0    0.2790  -0.2584   0.0000   0.9065  -0.0000   1.0649
  25 N_b :4f2+   0.0000   0.0000   0.1892  -0.0000   0.7222  -0.0000

 Molecular orbitals for symmetry species 2  (B3u)
 ------------------------------------------------

    Orbital         1        2        3        4        5        6        7
   1 N_b :2px    0.6244  -0.1657  -0.0775  -0.3637   0.0000   0.1839   0.1435
   2 N_b :2px   -0.0041   0.0551  -0.0177  -0.4015  -0.0000  -0.1348   0.9458
   3 N_b :2px   -0.0388  -0.1916   0.7405   0.8787  -0.0000  -0.3403  -0.2297
   6 N_b :2px    0.0055   0.6267  -0.2544  -0.2989   0.0000   0.0858  -0.0097
   8 N_b :3d1+  -0.0199   0.0053   0.0316   0.0054  -0.0000   0.0205   0.0290
   9 N_b :3d1+  -0.0366   0.0149  -0.0716   0.0866   0.0000   0.6916   0.2855
  10 N_b :3d1+  -0.0074  -0.0269   1.0975  -0.3723   0.0000  -0.8359   0.6610
  11 N_b :4f1+   0.0081  -0.0046   0.0118  -0.0004   0.0000  -0.0391   0.0725
  12 N_b :4f3+  -0.0000   0.0000   0.0000   0.0000  -0.0732  -0.0000  -0.0000
  13 N_b :4f1+   0.0008   0.0055  -0.1371   0.0192  -0.0000   0.5389  -1.3981
  14 N_b :4f3+  -0.0000  -0.0000  -0.0000  -0.0000   0.6178  -0.0000   0.0000

    Orbital         8        9       10       11
   1 N_b :2px   -2.5603   0.5464   0.0000   0.3933
   2 N_b :2px    2.4526  -0.8513  -0.0000  -0.2723
   3 N_b :2px    0.3237  -0.0340  -0.0000  -0.2194
   4 N_b :2px    0.0711  -0.0083   0.0000  -0.0058
   6 N_b :2px    0.1440  -0.0077   0.0000   0.0303
   8 N_b :3d1+   0.0419   0.6105  -0.0000  -0.6467
   9 N_b :3d1+   0.0517  -0.5539   0.0000   0.4068
  10 N_b :3d1+   0.0814  -0.0694   0.0000  -0.3202
  11 N_b :4f1+  -0.1030  -0.4274   0.0000  -0.6341
  12 N_b :4f3+   0.0000   0.0000   0.8005  -0.0000
  13 N_b :4f1+  -0.1203   0.6238  -0.0000   0.3122
  14 N_b :4f3+   0.0000   0.0000  -0.3227  -0.0000

 Molecular orbitals for symmetry species 3  (B2u)
 ------------------------------------------------

    Orbital         1        2        3        4        5        6        7
   1 N_b :2py    0.6244  -0.1657  -0.0775  -0.3637  -0.0000   0.1839   0.1435
   2 N_b :2py   -0.0041   0.0551  -0.0177  -0.4015   0.0000  -0.1348   0.9458
   3 N_b :2py   -0.0388  -0.1916   0.7405   0.8787   0.0000  -0.3403  -0.2297
   6 N_b :2py    0.0055   0.6267  -0.2544  -0.2989  -0.0000   0.0858  -0.0097
   8 N_b :3d1-  -0.0199   0.0053   0.0316   0.0054   0.0000   0.0205   0.0290
   9 N_b :3d1-  -0.0366   0.0149  -0.0716   0.0866  -0.0000   0.6916   0.2855
  10 N_b :3d1-  -0.0074  -0.0269   1.0975  -0.3723  -0.0000  -0.8359   0.6610
  11 N_b :4f3-  -0.0000   0.0000   0.0000   0.0000  -0.0732  -0.0000  -0.0000
  12 N_b :4f1-   0.0081  -0.0046   0.0118  -0.0004  -0.0000  -0.0391   0.0725
  13 N_b :4f3-   0.0000   0.0000  -0.0000  -0.0000   0.6178   0.0000   0.0000
  14 N_b :4f1-   0.0008   0.0055  -0.1371   0.0192   0.0000   0.5389  -1.3981

    Orbital         8        9       10       11
   1 N_b :2py   -2.5603   0.5464   0.0000   0.3933
   2 N_b :2py    2.4526  -0.8513  -0.0000  -0.2723
   3 N_b :2py    0.3237  -0.0340  -0.0000  -0.2194
   4 N_b :2py    0.0711  -0.0083   0.0000  -0.0058
   6 N_b :2py    0.1440  -0.0077   0.0000   0.0303
   8 N_b :3d1-   0.0419   0.6105   0.0000  -0.6467
   9 N_b :3d1-   0.0517  -0.5539  -0.0000   0.4068
  10 N_b :3d1-   0.0814  -0.0694  -0.0000  -0.3202
  11 N_b :4f3-   0.0000  -0.0000   0.8005  -0.0000
  12 N_b :4f1-  -0.1030  -0.4274  -0.0000  -0.6341
  13 N_b :4f3-  -0.0000  -0.0000  -0.3227   0.0000
  14 N_b :4f1-  -0.1203   0.6238  -0.0000   0.3122

 Molecular orbitals for symmetry species 4  (B1g)
 ------------------------------------------------

    Orbital         1        2        3        4        5        6
   1 N_b :3d2-   0.0002   0.0031   0.0014   0.0023  -0.0076   0.7214
   2 N_b :3d2-   0.0290   0.0047  -0.0137   0.3065  -0.7972  -0.1808
   3 N_b :3d2-  -0.0521   0.6579   0.5138  -0.1920   0.5060   0.0879
   4 N_b :3d2-   0.5636  -0.3738  -0.1380   0.0983  -0.1470  -0.0285
   5 N_b :4f2-  -0.0074   0.0182  -0.0772  -0.6757  -0.3028  -0.0083
   6 N_b :4f2-   0.0040  -0.1892   0.7222   0.3437   0.1896   0.0101

 Molecular orbitals for symmetry species 5  (B1u)
 ------------------------------------------------

    Orbital         1        2        3        4        5        6        7
   1 N_b :1s     0.7053   0.0081   0.0194   0.0532   0.1361   0.0000  -0.1357
   2 N_b :1s    -0.0074   0.6751   0.1627   0.0414   0.6387   0.0000  -0.9678
   3 N_b :1s     0.0029  -0.0053  -0.0263  -0.0908  -0.1592   0.0000   0.1882
   4 N_b :1s     0.0267   0.1968   4.2885   9.5447 -10.2318  -0.0000 -27.3159
   5 N_b :1s    -0.0011   0.0022   0.0072   0.0246   0.0620  -0.0000  -0.0520
   7 N_b :1s     0.0043   0.0356  13.4369  25.0572  -4.0924  -0.0000 -23.4011
   8 N_b :2pz   -0.0026   0.3216   0.0600  -0.0063  -0.1906  -0.0000  -0.1093
   9 N_b :2pz    0.0021  -0.0266  -0.2011  -0.4737   0.1809   0.0000   1.1720
  10 N_b :2pz   -0.0095  -0.1078  -2.3942  -5.7114   4.3985   0.0000  15.0088
  11 N_b :2pz   -0.0003   0.0004  -0.0020  -0.0044   0.0035  -0.0000   0.0106
  13 N_b :2pz   -0.0008  -0.0008  -3.5706  -5.1958   0.8886   0.0000   4.3213
  16 N_b :3d0    0.0005  -0.0027   0.0014   0.0094  -0.0121   0.0000   0.0017
  17 N_b :3d2+   0.0000  -0.0000  -0.0000   0.0000  -0.0000  -0.0173   0.0000
  18 N_b :3d0    0.0000   0.0014   0.1281   0.3433  -0.0854   0.0000  -0.7728
  19 N_b :3d2+  -0.0000  -0.0000  -0.0000   0.0000  -0.0000   0.0198   0.0000
  20 N_b :3d0    0.0017   0.0121   0.5014   1.0878  -1.9244  -0.0000  -2.6813
  21 N_b :3d2+   0.0000  -0.0000  -0.0000   0.0000   0.0000  -1.5728   0.0000
  22 N_b :4f0   -0.0003  -0.0015  -0.0090  -0.0260  -0.0142  -0.0000   0.0584
  23 N_b :4f2+  -0.0000  -0.0000   0.0000   0.0000   0.0000  -0.0251  -0.0000
  24 N_b :4f0    0.0003  -0.0007  -0.0296  -0.0582   0.1245   0.0000   0.1303
  25 N_b :4f2+   0.0000   0.0000   0.0000  -0.0000   0.0000   0.2005  -0.0000

    Orbital         8        9       10       11       12
   1 N_b :1s     0.2976   0.0000   0.3837   0.5269  -0.0000
   2 N_b :1s     1.0535   0.0000   2.1772   2.3026  -0.0000
   3 N_b :1s    -0.3794  -0.0000  -0.2564  -0.2336  -0.0000
   4 N_b :1s     1.5113   0.0000 -40.8499 -24.9610   0.0000
   5 N_b :1s     0.1350   0.0000   0.1558   0.2087   0.0000
   6 N_b :1s     0.0171   0.0000   0.0206   0.0386   0.0000
   7 N_b :1s     5.3153   0.0000 -13.9129  -8.2792   0.0000
   8 N_b :2pz    0.9057  -0.0000  -0.5028   0.4394   0.0000
   9 N_b :2pz   -0.4637   0.0000   1.9856   1.2461   0.0000
  10 N_b :2pz   -2.2299   0.0000  18.7027  10.9951  -0.0000
  11 N_b :2pz   -0.0021  -0.0000   0.0217   0.0078   0.0000
  13 N_b :2pz   -0.9238  -0.0000   2.4921   1.4062  -0.0000
  16 N_b :3d0    0.0507  -0.0000  -0.0329  -0.0402  -0.0000
  17 N_b :3d2+   0.0000   0.0230  -0.0000   0.0000   0.0167
  18 N_b :3d0    0.6899  -0.0000  -1.1993  -0.9757  -0.0000
  19 N_b :3d2+   0.0000   0.2750  -0.0000   0.0000  -1.5935
  20 N_b :3d0   -0.2588   0.0000  -3.4044  -1.0783   0.0000
  21 N_b :3d2+  -0.0000  -1.1704  -0.0000  -0.0000  -0.6110
  22 N_b :4f0   -0.0719  -0.0000   0.0601   0.1637   0.0000
  23 N_b :4f2+  -0.0000  -0.0689   0.0000  -0.0000  -0.0649
  24 N_b :4f0    0.0907   0.0000   0.5449  -1.1584   0.0000
  25 N_b :4f2+  -0.0000   0.9699   0.0000   0.0000   1.6377

 Molecular orbitals for symmetry species 6  (B2g)
 ------------------------------------------------

    Orbital         1        2        3        4        5        6        7
   1 N_b :2px    0.3757  -0.5273   0.3653  -0.5602   0.0000  -0.2335   0.8121
   2 N_b :2px    0.0215   0.0409   0.1941   0.0851  -0.0000   0.7826   1.1274
   3 N_b :2px    0.5874   0.8805   5.8983   9.3090  -0.0000   4.7588   8.0780
   4 N_b :2px    0.0007   0.0005   0.0028  -0.0000   0.0000   0.0123   0.0021
   6 N_b :2px    1.8639   2.2992   2.0613   0.7112   0.0000   0.8583   0.3918
   8 N_b :3d1+   0.0077  -0.0071   0.0144   0.0444  -0.0000   0.0314   0.0606
   9 N_b :3d1+  -0.0014  -0.0766  -0.3473  -0.9500   0.0000  -0.3675  -3.1546
  10 N_b :3d1+  -0.2942  -0.7902  -3.5262  -3.7093   0.0000  -2.2486  -2.9866
  11 N_b :4f1+  -0.0048  -0.0027  -0.0135   0.0403   0.0000  -0.0559   0.1032
  12 N_b :4f3+   0.0000  -0.0000   0.0000  -0.0000  -0.0898  -0.0000   0.0000
  13 N_b :4f1+   0.0274   0.0798   0.3334   0.5140  -0.0000   1.1264   1.4052
  14 N_b :4f3+  -0.0000   0.0000  -0.0000   0.0000   1.0142   0.0000  -0.0000

    Orbital         8        9       10
   1 N_b :2px    2.2874   0.0000  -1.9245
   2 N_b :2px   -3.3235  -0.0000   4.1390
   3 N_b :2px   -3.4256  -0.0000   5.3707
   4 N_b :2px   -0.0684   0.0000   0.0602
   6 N_b :2px   -0.3666   0.0000   0.1123
   8 N_b :3d1+   0.1816  -0.0000   0.6407
   9 N_b :3d1+   1.5575   0.0000  -3.6153
  10 N_b :3d1+   1.1200  -0.0000  -1.5327
  11 N_b :4f1+   0.3473   0.0000   0.6801
  12 N_b :4f3+   0.0000  -0.8630  -0.0000
  13 N_b :4f1+  -0.9441  -0.0000   1.0345
  14 N_b :4f3+  -0.0000   0.4751   0.0000

 Molecular orbitals for symmetry species 7  (B3g)
 ------------------------------------------------

    Orbital         1        2        3        4        5        6        7
   1 N_b :2py    0.3757  -0.5273   0.3653  -0.5602  -0.0000  -0.2335   0.8121
   2 N_b :2py    0.0215   0.0409   0.1941   0.0851   0.0000   0.7826   1.1274
   3 N_b :2py    0.5874   0.8805   5.8983   9.3090   0.0000   4.7588   8.0780
   4 N_b :2py    0.0007   0.0005   0.0028  -0.0000  -0.0000   0.0123   0.0021
   6 N_b :2py    1.8639   2.2992   2.0613   0.7112  -0.0000   0.8583   0.3918
   8 N_b :3d1-   0.0077  -0.0071   0.0144   0.0444   0.0000   0.0314   0.0606
   9 N_b :3d1-  -0.0014  -0.0766  -0.3473  -0.9500  -0.0000  -0.3675  -3.1546
  10 N_b :3d1-  -0.2942  -0.7902  -3.5262  -3.7093  -0.0000  -2.2486  -2.9866
  11 N_b :4f3-  -0.0000   0.0000  -0.0000   0.0000  -0.0898   0.0000  -0.0000
  12 N_b :4f1-  -0.0048  -0.0027  -0.0135   0.0403  -0.0000  -0.0559   0.1032
  13 N_b :4f3-   0.0000  -0.0000   0.0000  -0.0000   1.0142  -0.0000   0.0000
  14 N_b :4f1-   0.0274   0.0798   0.3334   0.5140   0.0000   1.1264   1.4052

    Orbital         8        9       10
   1 N_b :2py    2.2874  -0.0000  -1.9245
   2 N_b :2py   -3.3235   0.0000   4.1390
   3 N_b :2py   -3.4256   0.0000   5.3707
   4 N_b :2py   -0.0684  -0.0000   0.0602
   6 N_b :2py   -0.3666  -0.0000   0.1123
   8 N_b :3d1-   0.1816   0.0000   0.6407
   9 N_b :3d1-   1.5575  -0.0000  -3.6153
  10 N_b :3d1-   1.1200   0.0000  -1.5327
  11 N_b :4f3-  -0.0000  -0.8630   0.0000
  12 N_b :4f1-   0.3473  -0.0000   0.6801
  13 N_b :4f3-   0.0000   0.4751  -0.0000
  14 N_b :4f1-  -0.9441   0.0000   1.0345

 Molecular orbitals for symmetry species 8  (Au )
 ------------------------------------------------

    Orbital         1        2        3        4        5        6
   1 N_b :3d2-  -0.0001   0.0021  -0.0036   0.0072  -0.0051   0.7222
   2 N_b :3d2-  -0.0173   0.0230   0.0167   0.7760  -0.4551  -0.1961
   3 N_b :3d2-   0.0198   0.2750  -1.5935  -0.8999   0.5269   0.1675
   4 N_b :3d2-  -1.5728  -1.1704  -0.6110   0.2642   0.3405  -0.0096
   5 N_b :4f2-  -0.0251  -0.0689  -0.0649   0.4479   0.9130   0.0161
   6 N_b :4f2-   0.2005   0.9699   1.6377   0.1419  -0.7476  -0.0802

  Total CPU  time used in SIRIUS :   1.10 seconds
  Total wall time used in SIRIUS :   1.11 seconds

 
     Date and time (Linux)  : Wed Jan 11 14:24:23 2023
     Host name              : cn020                                   


                     .---------------------------------------.
                     | End of Wave Function Section (SIRIUS) |
                     `---------------------------------------'



                 .------------------------------------------------.
                 | Starting in Dynamic Property Section (RESPONS) |
                 `------------------------------------------------'


 ----------------------------------------------------------------------------------------
  RESPONSE  -  an MCSCF, MC-srDFT, DFT, SOPPA and SOPPA-srDFT response property program
 ----------------------------------------------------------------------------------------


 -------- OUTPUT FROM RESPONSE INPUT PROCESSING --------




 Linear Response calculation
 ---------------------------

 Print level                                    : IPRLR  =   2
 Maximum number of iterations                   : MAXITL =  60
 Threshold for relative convergence             : THCLR  = 1.000D-03
 Maximum iterations in optimal orbital algorithm: MAXITO =   5

  9 B-frequencies  0.000000D+00  1.825019D-02  3.650038D-02  5.475056D-02  7.300075D-02
  9.125094D-02  1.095011D-01  1.277513D-01  1.460015D-01

    1 second order properties calculated with symmetry no.    2 and labels:

          XDIPLEN 

    1 second order properties calculated with symmetry no.    3 and labels:

          YDIPLEN 

    1 second order properties calculated with symmetry no.    5 and labels:

          ZDIPLEN 


   SCF energy         :     -108.985682544516010
 -- inactive part     :     -132.607881626624845
 -- nuclear repulsion :       23.622199082108835


                     ***************************************
                     *** RHF response calculation (TDHF) ***
                     ***************************************

 ----------------------------------------------------------------
 ----- Linear response calculation
 ----- Symmetry of excitation/property operator(s)    2  ( B3u)
 ----------------------------------------------------------------

 Number of excitations of this symmetry            0
 Number of response properties of this symmetry    1
 Number of C6/C8 properties of this symmetry       0


 Perturbation symmetry.     KSYMOP:           2
 Perturbation spin symmetry.TRPLET:           F
 Orbital variables.         KZWOPT:          95
 Configuration variables.   KZCONF:           0
 Total number of variables. KZVAR :          95


 RSPLR -- linear response calculation for symmetry 2  ( B3u)
 RSPLR -- operator label : XDIPLEN 
 RSPLR -- operator spin  :   0
 RSPLR -- frequencies    :     0.000000  0.018250  0.036500  0.054751  0.073001
                               0.091251  0.109501  0.127751  0.146002



 ---  SOLVING SETS OF LINEAR EQUATIONS FOR LINEAR RESPONSE PROPERTIES ---

 Operator symmetry = 2  ( B3u); triplet =   F

RSPORT:    1 out of    9 new trial vectors linear dependent

 ** RSPCTL MICROITERATION NUMBER    1

       No.  Residual tot.,    conf., and orb.    Bnorm      Frequency 
      ----------------------------------------------------------------
         1    7.96863D-01  0.00D+00  7.97D-01  2.33D+00    0.00000D+00
         2    7.97316D-01  0.00D+00  7.97D-01  2.34D+00    1.82502D-02
         3    7.98681D-01  0.00D+00  7.99D-01  2.35D+00    3.65004D-02
         4    8.00973D-01  0.00D+00  8.01D-01  2.36D+00    5.47506D-02
         5    8.04221D-01  0.00D+00  8.04D-01  2.38D+00    7.30008D-02
         6    8.08464D-01  0.00D+00  8.08D-01  2.41D+00    9.12509D-02
         7    8.13755D-01  0.00D+00  8.14D-01  2.45D+00    1.09501D-01
         8    8.20164D-01  0.00D+00  8.20D-01  2.49D+00    1.27751D-01
         9    8.27779D-01  0.00D+00  8.28D-01  2.55D+00    1.46002D-01

 ** RSPCTL MICROITERATION NUMBER    2

       No.  Residual tot.,    conf., and orb.    Bnorm      Frequency 
      ----------------------------------------------------------------
         1    4.99735D-02  0.00D+00  5.00D-02  2.37D+00    0.00000D+00
         2    4.99940D-02  0.00D+00  5.00D-02  2.38D+00    1.82502D-02
         3    5.00560D-02  0.00D+00  5.01D-02  2.39D+00    3.65004D-02
         4    5.01613D-02  0.00D+00  5.02D-02  2.40D+00    5.47506D-02
         5    5.03126D-02  0.00D+00  5.03D-02  2.43D+00    7.30008D-02
         6    5.05146D-02  0.00D+00  5.05D-02  2.46D+00    9.12509D-02
         7    5.07738D-02  0.00D+00  5.08D-02  2.49D+00    1.09501D-01
         8    5.10998D-02  0.00D+00  5.11D-02  2.54D+00    1.27751D-01
         9    5.15064D-02  0.00D+00  5.15D-02  2.59D+00    1.46002D-01

 ** RSPCTL MICROITERATION NUMBER    3

       No.  Residual tot.,    conf., and orb.    Bnorm      Frequency 
      ----------------------------------------------------------------
         1    1.86544D-03  0.00D+00  1.87D-03  2.37D+00    0.00000D+00
         2    1.87261D-03  0.00D+00  1.87D-03  2.38D+00    1.82502D-02
         3    1.89435D-03  0.00D+00  1.89D-03  2.39D+00    3.65004D-02
         4    1.93134D-03  0.00D+00  1.93D-03  2.40D+00    5.47506D-02
         5    1.98477D-03  0.00D+00  1.98D-03  2.43D+00    7.30008D-02
         6    2.05638D-03  0.00D+00  2.06D-03  2.46D+00    9.12509D-02
         7    2.14855D-03  0.00D+00  2.15D-03  2.49D+00    1.09501D-01
         8    2.26442D-03  0.00D+00  2.26D-03  2.54D+00    1.27751D-01
         9    2.40808D-03  0.00D+00  2.41D-03  2.59D+00    1.46002D-01

 *** THE REQUESTED    9 SOLUTION VECTORS CONVERGED

 Convergence of RSP solution vectors, threshold = 1.00D-03
 ---------------------------------------------------------------
 (dimension of paired reduced space:   52)
 RSP solution vector no.    1; norm of residual   7.86D-04
 RSP solution vector no.    2; norm of residual   7.88D-04
 RSP solution vector no.    3; norm of residual   7.94D-04
 RSP solution vector no.    4; norm of residual   8.04D-04
 RSP solution vector no.    5; norm of residual   8.18D-04
 RSP solution vector no.    6; norm of residual   8.37D-04
 RSP solution vector no.    7; norm of residual   8.62D-04
 RSP solution vector no.    8; norm of residual   8.92D-04
 RSP solution vector no.    9; norm of residual   9.29D-04

 *** RSPCTL MICROITERATIONS CONVERGED


           Final output of second order properties from linear response
           ------------------------------------------------------------


@ Spin symmetry of operators: singlet

 Note that minus the linear response function: - << A; B >>(omega) is printed.
 The results are of quadratic accuracy using Sellers formula.

@ FREQUENCY INDEPENDENT SECOND ORDER PROPERTIES

@ -<< XDIPLEN  ; XDIPLEN  >> =  9.792926367437E+00

@ FREQUENCY DEPENDENT SECOND ORDER PROPERTIES WITH FREQUENCY :

@    a.u.:  1.8250188D-02
@    cm-1:  4.0054531D+03
@    eV  :  4.9661286D-01
@  kJ/mol:  4.7915860D+01
@    nm  :  2.4965964D+03

@ -<< XDIPLEN  ; XDIPLEN  >> =  9.799514728286E+00

@ FREQUENCY DEPENDENT SECOND ORDER PROPERTIES WITH FREQUENCY :

@    a.u.:  3.6500375D-02
@    cm-1:  8.0109063D+03
@    eV  :  9.9322573D-01
@  kJ/mol:  9.5831720D+01
@    nm  :  1.2482982D+03

@ -<< XDIPLEN  ; XDIPLEN  >> =  9.819349879457E+00

@ FREQUENCY DEPENDENT SECOND ORDER PROPERTIES WITH FREQUENCY :

@    a.u.:  5.4750563D-02
@    cm-1:  1.2016359D+04
@    eV  :  1.4898386D+00
@  kJ/mol:  1.4374758D+02
@    nm  :  8.3219881D+02

@ -<< XDIPLEN  ; XDIPLEN  >> =  9.852644186094E+00

@ FREQUENCY DEPENDENT SECOND ORDER PROPERTIES WITH FREQUENCY :

@    a.u.:  7.3000750D-02
@    cm-1:  1.6021813D+04
@    eV  :  1.9864515D+00
@  kJ/mol:  1.9166344D+02
@    nm  :  6.2414911D+02

@ -<< XDIPLEN  ; XDIPLEN  >> =  9.899758923819E+00

@ FREQUENCY DEPENDENT SECOND ORDER PROPERTIES WITH FREQUENCY :

@    a.u.:  9.1250938D-02
@    cm-1:  2.0027266D+04
@    eV  :  2.4830643D+00
@  kJ/mol:  2.3957930D+02
@    nm  :  4.9931929D+02

@ -<< XDIPLEN  ; XDIPLEN  >> =  9.961215770528E+00

@ FREQUENCY DEPENDENT SECOND ORDER PROPERTIES WITH FREQUENCY :

@    a.u.:  1.0950113D-01
@    cm-1:  2.4032719D+04
@    eV  :  2.9796772D+00
@  kJ/mol:  2.8749516D+02
@    nm  :  4.1609940D+02

@ -<< XDIPLEN  ; XDIPLEN  >> =  1.003771393257E+01

@ FREQUENCY DEPENDENT SECOND ORDER PROPERTIES WITH FREQUENCY :

@    a.u.:  1.2775131D-01
@    cm-1:  2.8038172D+04
@    eV  :  3.4762900D+00
@  kJ/mol:  3.3541102D+02
@    nm  :  3.5665663D+02

@ -<< XDIPLEN  ; XDIPLEN  >> =  1.013015408128E+01

@ FREQUENCY DEPENDENT SECOND ORDER PROPERTIES WITH FREQUENCY :

@    a.u.:  1.4600150D-01
@    cm-1:  3.2043625D+04
@    eV  :  3.9729029D+00
@  kJ/mol:  3.8332688D+02
@    nm  :  3.1207455D+02

@ -<< XDIPLEN  ; XDIPLEN  >> =  1.023967083585E+01


 Time used in linear response calculation is      1.10 CPU seconds for symmetry 2
 ----------------------------------------------------------------
 ----- Linear response calculation
 ----- Symmetry of excitation/property operator(s)    3  ( B2u)
 ----------------------------------------------------------------

 Number of excitations of this symmetry            0
 Number of response properties of this symmetry    1
 Number of C6/C8 properties of this symmetry       0


 Perturbation symmetry.     KSYMOP:           3
 Perturbation spin symmetry.TRPLET:           F
 Orbital variables.         KZWOPT:          95
 Configuration variables.   KZCONF:           0
 Total number of variables. KZVAR :          95


 RSPLR -- linear response calculation for symmetry 3  ( B2u)
 RSPLR -- operator label : YDIPLEN 
 RSPLR -- operator spin  :   0
 RSPLR -- frequencies    :     0.000000  0.018250  0.036500  0.054751  0.073001
                               0.091251  0.109501  0.127751  0.146002



 ---  SOLVING SETS OF LINEAR EQUATIONS FOR LINEAR RESPONSE PROPERTIES ---

 Operator symmetry = 3  ( B2u); triplet =   F

RSPORT:    1 out of    9 new trial vectors linear dependent

 ** RSPCTL MICROITERATION NUMBER    1

       No.  Residual tot.,    conf., and orb.    Bnorm      Frequency 
      ----------------------------------------------------------------
         1    8.18885D-01  0.00D+00  8.19D-01  2.33D+00    0.00000D+00
         2    8.19355D-01  0.00D+00  8.19D-01  2.34D+00    1.82502D-02
         3    8.20769D-01  0.00D+00  8.21D-01  2.34D+00    3.65004D-02
         4    8.23144D-01  0.00D+00  8.23D-01  2.36D+00    5.47506D-02
         5    8.26508D-01  0.00D+00  8.27D-01  2.38D+00    7.30008D-02
         6    8.30902D-01  0.00D+00  8.31D-01  2.41D+00    9.12509D-02
         7    8.36381D-01  0.00D+00  8.36D-01  2.45D+00    1.09501D-01
         8    8.43015D-01  0.00D+00  8.43D-01  2.49D+00    1.27751D-01
         9    8.50895D-01  0.00D+00  8.51D-01  2.54D+00    1.46002D-01

 ** RSPCTL MICROITERATION NUMBER    2

       No.  Residual tot.,    conf., and orb.    Bnorm      Frequency 
      ----------------------------------------------------------------
         1    4.99960D-02  0.00D+00  5.00D-02  2.37D+00    0.00000D+00
         2    5.00281D-02  0.00D+00  5.00D-02  2.38D+00    1.82502D-02
         3    5.01254D-02  0.00D+00  5.01D-02  2.39D+00    3.65004D-02
         4    5.02901D-02  0.00D+00  5.03D-02  2.40D+00    5.47506D-02
         5    5.05266D-02  0.00D+00  5.05D-02  2.43D+00    7.30008D-02
         6    5.08410D-02  0.00D+00  5.08D-02  2.46D+00    9.12509D-02
         7    5.12423D-02  0.00D+00  5.12D-02  2.49D+00    1.09501D-01
         8    5.17429D-02  0.00D+00  5.17D-02  2.54D+00    1.27751D-01
         9    5.23594D-02  0.00D+00  5.24D-02  2.59D+00    1.46002D-01

 ** RSPCTL MICROITERATION NUMBER    3

       No.  Residual tot.,    conf., and orb.    Bnorm      Frequency 
      ----------------------------------------------------------------
         1    2.03927D-03  0.00D+00  2.04D-03  2.37D+00    0.00000D+00
         2    2.03895D-03  0.00D+00  2.04D-03  2.38D+00    1.82502D-02
         3    2.03819D-03  0.00D+00  2.04D-03  2.39D+00    3.65004D-02
         4    2.03762D-03  0.00D+00  2.04D-03  2.40D+00    5.47506D-02
         5    2.03844D-03  0.00D+00  2.04D-03  2.43D+00    7.30008D-02
         6    2.04261D-03  0.00D+00  2.04D-03  2.46D+00    9.12509D-02
         7    2.05323D-03  0.00D+00  2.05D-03  2.49D+00    1.09501D-01
         8    2.07502D-03  0.00D+00  2.08D-03  2.54D+00    1.27751D-01
         9    2.11501D-03  0.00D+00  2.12D-03  2.59D+00    1.46002D-01

 *** THE REQUESTED    9 SOLUTION VECTORS CONVERGED

 Convergence of RSP solution vectors, threshold = 1.00D-03
 ---------------------------------------------------------------
 (dimension of paired reduced space:   52)
 RSP solution vector no.    1; norm of residual   8.59D-04
 RSP solution vector no.    2; norm of residual   8.58D-04
 RSP solution vector no.    3; norm of residual   8.54D-04
 RSP solution vector no.    4; norm of residual   8.48D-04
 RSP solution vector no.    5; norm of residual   8.40D-04
 RSP solution vector no.    6; norm of residual   8.32D-04
 RSP solution vector no.    7; norm of residual   8.24D-04
 RSP solution vector no.    8; norm of residual   8.17D-04
 RSP solution vector no.    9; norm of residual   8.16D-04

 *** RSPCTL MICROITERATIONS CONVERGED


           Final output of second order properties from linear response
           ------------------------------------------------------------


@ Spin symmetry of operators: singlet

 Note that minus the linear response function: - << A; B >>(omega) is printed.
 The results are of quadratic accuracy using Sellers formula.

@ FREQUENCY INDEPENDENT SECOND ORDER PROPERTIES

@ -<< YDIPLEN  ; YDIPLEN  >> =  9.792926402907E+00

@ FREQUENCY DEPENDENT SECOND ORDER PROPERTIES WITH FREQUENCY :

@    a.u.:  1.8250188D-02
@    cm-1:  4.0054531D+03
@    eV  :  4.9661286D-01
@  kJ/mol:  4.7915860D+01
@    nm  :  2.4965964D+03

@ -<< YDIPLEN  ; YDIPLEN  >> =  9.799514766845E+00

@ FREQUENCY DEPENDENT SECOND ORDER PROPERTIES WITH FREQUENCY :

@    a.u.:  3.6500375D-02
@    cm-1:  8.0109063D+03
@    eV  :  9.9322573D-01
@  kJ/mol:  9.5831720D+01
@    nm  :  1.2482982D+03

@ -<< YDIPLEN  ; YDIPLEN  >> =  9.819349927376E+00

@ FREQUENCY DEPENDENT SECOND ORDER PROPERTIES WITH FREQUENCY :

@    a.u.:  5.4750563D-02
@    cm-1:  1.2016359D+04
@    eV  :  1.4898386D+00
@  kJ/mol:  1.4374758D+02
@    nm  :  8.3219881D+02

@ -<< YDIPLEN  ; YDIPLEN  >> =  9.852644249917E+00

@ FREQUENCY DEPENDENT SECOND ORDER PROPERTIES WITH FREQUENCY :

@    a.u.:  7.3000750D-02
@    cm-1:  1.6021813D+04
@    eV  :  1.9864515D+00
@  kJ/mol:  1.9166344D+02
@    nm  :  6.2414911D+02

@ -<< YDIPLEN  ; YDIPLEN  >> =  9.899759010549E+00

@ FREQUENCY DEPENDENT SECOND ORDER PROPERTIES WITH FREQUENCY :

@    a.u.:  9.1250938D-02
@    cm-1:  2.0027266D+04
@    eV  :  2.4830643D+00
@  kJ/mol:  2.3957930D+02
@    nm  :  4.9931929D+02

@ -<< YDIPLEN  ; YDIPLEN  >> =  9.961215887818E+00

@ FREQUENCY DEPENDENT SECOND ORDER PROPERTIES WITH FREQUENCY :

@    a.u.:  1.0950113D-01
@    cm-1:  2.4032719D+04
@    eV  :  2.9796772D+00
@  kJ/mol:  2.8749516D+02
@    nm  :  4.1609940D+02

@ -<< YDIPLEN  ; YDIPLEN  >> =  1.003771408891E+01

@ FREQUENCY DEPENDENT SECOND ORDER PROPERTIES WITH FREQUENCY :

@    a.u.:  1.2775131D-01
@    cm-1:  2.8038172D+04
@    eV  :  3.4762900D+00
@  kJ/mol:  3.3541102D+02
@    nm  :  3.5665663D+02

@ -<< YDIPLEN  ; YDIPLEN  >> =  1.013015428615E+01

@ FREQUENCY DEPENDENT SECOND ORDER PROPERTIES WITH FREQUENCY :

@    a.u.:  1.4600150D-01
@    cm-1:  3.2043625D+04
@    eV  :  3.9729029D+00
@  kJ/mol:  3.8332688D+02
@    nm  :  3.1207455D+02

@ -<< YDIPLEN  ; YDIPLEN  >> =  1.023967109987E+01


 Time used in linear response calculation is      1.09 CPU seconds for symmetry 3
 ----------------------------------------------------------------
 ----- Linear response calculation
 ----- Symmetry of excitation/property operator(s)    5  ( B1u)
 ----------------------------------------------------------------

 Number of excitations of this symmetry            0
 Number of response properties of this symmetry    1
 Number of C6/C8 properties of this symmetry       0


 Perturbation symmetry.     KSYMOP:           5
 Perturbation spin symmetry.TRPLET:           F
 Orbital variables.         KZWOPT:         141
 Configuration variables.   KZCONF:           0
 Total number of variables. KZVAR :         141


 RSPLR -- linear response calculation for symmetry 5  ( B1u)
 RSPLR -- operator label : ZDIPLEN 
 RSPLR -- operator spin  :   0
 RSPLR -- frequencies    :     0.000000  0.018250  0.036500  0.054751  0.073001
                               0.091251  0.109501  0.127751  0.146002



 ---  SOLVING SETS OF LINEAR EQUATIONS FOR LINEAR RESPONSE PROPERTIES ---

 Operator symmetry = 5  ( B1u); triplet =   F


 ** RSPCTL MICROITERATION NUMBER    1

       No.  Residual tot.,    conf., and orb.    Bnorm      Frequency 
      ----------------------------------------------------------------
         1    2.84875D+00  0.00D+00  2.85D+00  2.54D+00    0.00000D+00
         2    2.85093D+00  0.00D+00  2.85D+00  2.55D+00    1.82502D-02
         3    2.85748D+00  0.00D+00  2.86D+00  2.56D+00    3.65004D-02
         4    2.86848D+00  0.00D+00  2.87D+00  2.58D+00    5.47506D-02
         5    2.88405D+00  0.00D+00  2.88D+00  2.61D+00    7.30008D-02
         6    2.90436D+00  0.00D+00  2.90D+00  2.65D+00    9.12509D-02
         7    2.92966D+00  0.00D+00  2.93D+00  2.70D+00    1.09501D-01
         8    2.96025D+00  0.00D+00  2.96D+00  2.76D+00    1.27751D-01
         9    2.99651D+00  0.00D+00  3.00D+00  2.83D+00    1.46002D-01

 ** RSPCTL MICROITERATION NUMBER    2

       No.  Residual tot.,    conf., and orb.    Bnorm      Frequency 
      ----------------------------------------------------------------
         1    3.15103D-01  0.00D+00  3.15D-01  3.12D+00    0.00000D+00
         2    3.15481D-01  0.00D+00  3.15D-01  3.12D+00    1.82502D-02
         3    3.16620D-01  0.00D+00  3.17D-01  3.14D+00    3.65004D-02
         4    3.18538D-01  0.00D+00  3.19D-01  3.17D+00    5.47506D-02
         5    3.21263D-01  0.00D+00  3.21D-01  3.21D+00    7.30008D-02
         6    3.24836D-01  0.00D+00  3.25D-01  3.27D+00    9.12509D-02
         7    3.29313D-01  0.00D+00  3.29D-01  3.34D+00    1.09501D-01
         8    3.34770D-01  0.00D+00  3.35D-01  3.42D+00    1.27751D-01
         9    3.41300D-01  0.00D+00  3.41D-01  3.52D+00    1.46002D-01

 ** RSPCTL MICROITERATION NUMBER    3

       No.  Residual tot.,    conf., and orb.    Bnorm      Frequency 
      ----------------------------------------------------------------
         1    3.19612D-02  0.00D+00  3.20D-02  3.12D+00    0.00000D+00
         2    3.20268D-02  0.00D+00  3.20D-02  3.13D+00    1.82502D-02
         3    3.22250D-02  0.00D+00  3.22D-02  3.15D+00    3.65004D-02
         4    3.25596D-02  0.00D+00  3.26D-02  3.18D+00    5.47506D-02
         5    3.30370D-02  0.00D+00  3.30D-02  3.22D+00    7.30008D-02
         6    3.36669D-02  0.00D+00  3.37D-02  3.27D+00    9.12509D-02
         7    3.44621D-02  0.00D+00  3.45D-02  3.34D+00    1.09501D-01
         8    3.54395D-02  0.00D+00  3.54D-02  3.43D+00    1.27751D-01
         9    3.66207D-02  0.00D+00  3.66D-02  3.53D+00    1.46002D-01

 ** RSPCTL MICROITERATION NUMBER    4

       No.  Residual tot.,    conf., and orb.    Bnorm      Frequency 
      ----------------------------------------------------------------
         1    2.03015D-03  0.00D+00  2.03D-03  3.12D+00    0.00000D+00
         2    2.03536D-03  0.00D+00  2.04D-03  3.13D+00    1.82502D-02
         3    2.05108D-03  0.00D+00  2.05D-03  3.15D+00    3.65004D-02
         4    2.07766D-03  0.00D+00  2.08D-03  3.18D+00    5.47506D-02
         5    2.11565D-03  0.00D+00  2.12D-03  3.22D+00    7.30008D-02
         6    2.16588D-03  0.00D+00  2.17D-03  3.27D+00    9.12509D-02
         7    2.22947D-03  0.00D+00  2.23D-03  3.34D+00    1.09501D-01
         8    2.30792D-03  0.00D+00  2.31D-03  3.43D+00    1.27751D-01
         9    2.40313D-03  0.00D+00  2.40D-03  3.53D+00    1.46002D-01

 *** THE REQUESTED    9 SOLUTION VECTORS CONVERGED

 Convergence of RSP solution vectors, threshold = 1.00D-03
 ---------------------------------------------------------------
 (dimension of paired reduced space:   72)
 RSP solution vector no.    1; norm of residual   6.50D-04
 RSP solution vector no.    2; norm of residual   6.51D-04
 RSP solution vector no.    3; norm of residual   6.52D-04
 RSP solution vector no.    4; norm of residual   6.54D-04
 RSP solution vector no.    5; norm of residual   6.57D-04
 RSP solution vector no.    6; norm of residual   6.62D-04
 RSP solution vector no.    7; norm of residual   6.67D-04
 RSP solution vector no.    8; norm of residual   6.73D-04
 RSP solution vector no.    9; norm of residual   6.81D-04

 *** RSPCTL MICROITERATIONS CONVERGED


           Final output of second order properties from linear response
           ------------------------------------------------------------


@ Spin symmetry of operators: singlet

 Note that minus the linear response function: - << A; B >>(omega) is printed.
 The results are of quadratic accuracy using Sellers formula.

@ FREQUENCY INDEPENDENT SECOND ORDER PROPERTIES

@ -<< ZDIPLEN  ; ZDIPLEN  >> =  1.502829885129E+01

@ FREQUENCY DEPENDENT SECOND ORDER PROPERTIES WITH FREQUENCY :

@    a.u.:  1.8250188D-02
@    cm-1:  4.0054531D+03
@    eV  :  4.9661286D-01
@  kJ/mol:  4.7915860D+01
@    nm  :  2.4965964D+03

@ -<< ZDIPLEN  ; ZDIPLEN  >> =  1.504218962117E+01

@ FREQUENCY DEPENDENT SECOND ORDER PROPERTIES WITH FREQUENCY :

@    a.u.:  3.6500375D-02
@    cm-1:  8.0109063D+03
@    eV  :  9.9322573D-01
@  kJ/mol:  9.5831720D+01
@    nm  :  1.2482982D+03

@ -<< ZDIPLEN  ; ZDIPLEN  >> =  1.508404949366E+01

@ FREQUENCY DEPENDENT SECOND ORDER PROPERTIES WITH FREQUENCY :

@    a.u.:  5.4750563D-02
@    cm-1:  1.2016359D+04
@    eV  :  1.4898386D+00
@  kJ/mol:  1.4374758D+02
@    nm  :  8.3219881D+02

@ -<< ZDIPLEN  ; ZDIPLEN  >> =  1.515444796756E+01

@ FREQUENCY DEPENDENT SECOND ORDER PROPERTIES WITH FREQUENCY :

@    a.u.:  7.3000750D-02
@    cm-1:  1.6021813D+04
@    eV  :  1.9864515D+00
@  kJ/mol:  1.9166344D+02
@    nm  :  6.2414911D+02

@ -<< ZDIPLEN  ; ZDIPLEN  >> =  1.525435738572E+01

@ FREQUENCY DEPENDENT SECOND ORDER PROPERTIES WITH FREQUENCY :

@    a.u.:  9.1250938D-02
@    cm-1:  2.0027266D+04
@    eV  :  2.4830643D+00
@  kJ/mol:  2.3957930D+02
@    nm  :  4.9931929D+02

@ -<< ZDIPLEN  ; ZDIPLEN  >> =  1.538518942948E+01

@ FREQUENCY DEPENDENT SECOND ORDER PROPERTIES WITH FREQUENCY :

@    a.u.:  1.0950113D-01
@    cm-1:  2.4032719D+04
@    eV  :  2.9796772D+00
@  kJ/mol:  2.8749516D+02
@    nm  :  4.1609940D+02

@ -<< ZDIPLEN  ; ZDIPLEN  >> =  1.554884987264E+01

@ FREQUENCY DEPENDENT SECOND ORDER PROPERTIES WITH FREQUENCY :

@    a.u.:  1.2775131D-01
@    cm-1:  2.8038172D+04
@    eV  :  3.4762900D+00
@  kJ/mol:  3.3541102D+02
@    nm  :  3.5665663D+02

@ -<< ZDIPLEN  ; ZDIPLEN  >> =  1.574781577881E+01

@ FREQUENCY DEPENDENT SECOND ORDER PROPERTIES WITH FREQUENCY :

@    a.u.:  1.4600150D-01
@    cm-1:  3.2043625D+04
@    eV  :  3.9729029D+00
@  kJ/mol:  3.8332688D+02
@    nm  :  3.1207455D+02

@ -<< ZDIPLEN  ; ZDIPLEN  >> =  1.598524137117E+01


 Time used in linear response calculation is      1.51 CPU seconds for symmetry 5

  Total CPU  time used in RESPONSE:   3.69 seconds
  Total wall time used in RESPONSE:   3.71 seconds


                   .-------------------------------------------.
                   | End of Dynamic Property Section (RESPONS) |
                   `-------------------------------------------'

  Total CPU  time used in DALTON:   4.93 seconds
  Total wall time used in DALTON:   4.96 seconds

 
     Date and time (Linux)  : Wed Jan 11 14:24:27 2023
     Host name              : cn020                                   
