

     ************************************************************************
     *************** Dalton - An Electronic Structure Program ***************
     ************************************************************************

    This is output from DALTON release Dalton2020.0 (2020)
         ( Web site: http://daltonprogram.org )

   ----------------------------------------------------------------------------

    NOTE:
     
    Dalton is an experimental code for the evaluation of molecular
    properties using (MC)SCF, DFT, CI, and CC wave functions.
    The authors accept no responsibility for the performance of
    the code or for the correctness of the results.
     
    The code (in whole or part) is provided under a licence and
    is not to be reproduced for further distribution without
    the written permission of the authors or their representatives.
     
    See the home page "http://daltonprogram.org" for further information.
     
    If results obtained with this code are published,
    the appropriate citations would be both of:
     
       K. Aidas, C. Angeli, K. L. Bak, V. Bakken, R. Bast,
       L. Boman, O. Christiansen, R. Cimiraglia, S. Coriani,
       P. Dahle, E. K. Dalskov, U. Ekstroem,
       T. Enevoldsen, J. J. Eriksen, P. Ettenhuber, B. Fernandez,
       L. Ferrighi, H. Fliegl, L. Frediani, K. Hald, A. Halkier,
       C. Haettig, H. Heiberg, T. Helgaker, A. C. Hennum,
       H. Hettema, E. Hjertenaes, S. Hoest, I.-M. Hoeyvik,
       M. F. Iozzi, B. Jansik, H. J. Aa. Jensen, D. Jonsson,
       P. Joergensen, J. Kauczor, S. Kirpekar,
       T. Kjaergaard, W. Klopper, S. Knecht, R. Kobayashi, H. Koch,
       J. Kongsted, A. Krapp, K. Kristensen, A. Ligabue,
       O. B. Lutnaes, J. I. Melo, K. V. Mikkelsen, R. H. Myhre,
       C. Neiss, C. B. Nielsen, P. Norman, J. Olsen,
       J. M. H. Olsen, A. Osted, M. J. Packer, F. Pawlowski,
       T. B. Pedersen, P. F. Provasi, S. Reine, Z. Rinkevicius,
       T. A. Ruden, K. Ruud, V. Rybkin, P. Salek, C. C. M. Samson,
       A. Sanchez de Meras, T. Saue, S. P. A. Sauer,
       B. Schimmelpfennig, K. Sneskov, A. H. Steindal,
       K. O. Sylvester-Hvid, P. R. Taylor, A. M. Teale,
       E. I. Tellgren, D. P. Tew, A. J. Thorvaldsen, L. Thoegersen,
       O. Vahtras, M. A. Watson, D. J. D. Wilson, M. Ziolkowski
       and H. Agren,
       "The Dalton quantum chemistry program system",
       WIREs Comput. Mol. Sci. 2014, 4:269–284 (doi: 10.1002/wcms.1172)
     
    and
     
       Dalton, a molecular electronic structure program,
       Release Dalton2020.0 (2020), see http://daltonprogram.org
   ----------------------------------------------------------------------------

    Authors in alphabetical order (Major contribution(s) in parenthesis):

  Kestutis Aidas,           Vilnius University,           Lithuania   (QM/MM)
  Celestino Angeli,         University of Ferrara,        Italy       (NEVPT2)
  Keld L. Bak,              UNI-C,                        Denmark     (AOSOPPA, non-adiabatic coupling, magnetic properties)
  Vebjoern Bakken,          University of Oslo,           Norway      (DALTON; geometry optimizer, symmetry detection)
  Radovan Bast,             UiT The Arctic U. of Norway,  Norway      (DALTON installation and execution frameworks)
  Pablo Baudin,             University of Valencia,       Spain       (Cholesky excitation energies)
  Linus Boman,              NTNU,                         Norway      (Cholesky decomposition and subsystems)
  Bruno N. Cabral Tenorio,  Technical Univ. of Denmark,   Denmark     (Lanczos-based CC methods)
  Ove Christiansen,         Aarhus University,            Denmark     (CC module)
  Renzo Cimiraglia,         University of Ferrara,        Italy       (NEVPT2)
  Sonia Coriani,            Technical Univ. of Denmark,   Denmark     (CC and RESPONS modules)
  Janusz Cukras,            University of Warsaw,         Poland      (MChD in RESPONS)
  Paal Dahle,               University of Oslo,           Norway      (Parallelization)
  Erik K. Dalskov,          UNI-C,                        Denmark     (SOPPA)
  Thomas Enevoldsen,        Univ. of Southern Denmark,    Denmark     (SOPPA)
  Janus J. Eriksen,         Aarhus University,            Denmark     (Polarizable embedding, TDA)
  Rasmus Faber,             Technical Univ. of Denmark,   Denmark     (Vib.avg. NMR w. SOPPA, parallel AO-SOPPA, CVS-CC and EOMCC)
  Tobias Fahleson,          KTH Stockholm,                Sweden      (Damped cubic response)
  Berta Fernandez,          U. of Santiago de Compostela, Spain       (Doublet spin, ESR in RESPONS)
  Lara Ferrighi,            Aarhus University,            Denmark     (PCM Cubic response)
  Heike Fliegl,             University of Oslo,           Norway      (CCSD(R12))
  Luca Frediani,            UiT The Arctic U. of Norway,  Norway      (PCM)
  Emmanuel Fromager,        Univ. Strasbourg,             France      (MC-srDFT)
  Bin Gao,                  UiT The Arctic U. of Norway,  Norway      (Gen1Int library)
  Andre S. P. Gomes,        CNRS/Universite de Lille,     France      (Frozen density embedding)
  Christof Haettig,         Ruhr-University Bochum,       Germany     (CC module)
  Kasper Hald,              Aarhus University,            Denmark     (CC module)
  Asger Halkier,            Aarhus University,            Denmark     (CC module)
  Frederik Beyer Hansen,    University of Copenhagen,     Denmark     (Parallel AO-SOPPA)
  Erik D. Hedegaard,        Univ. of Southern Denmark,    Denmark     (Polarizable embedding, QM/MM, and MC-srDFT)
  Hanne Heiberg,            University of Oslo,           Norway      (Geometry analysis, selected one-electron integrals)
  Trygve Helgaker,          University of Oslo,           Norway      (DALTON; ABACUS, ERI, DFT modules, London, and much more)
  Alf Christian Hennum,     University of Oslo,           Norway      (Parity violation)
  Hinne Hettema,            University of Auckland,       New Zealand (Quadratic response in RESPONS; SIRIUS supersymmetry)
  Eirik Hjertenaes,         NTNU,                         Norway      (Cholesky decomposition)
  Pi A. B. Haase,           University of Copenhagen,     Denmark     (Triplet AO-SOPPA)
  Maria Francesca Iozzi,    University of Oslo,           Norway      (RPA)
  Christoph Jacob           TU Braunschweig               Germany     (Frozen density embedding)
  Brano Jansik              Technical Univ. of Ostrava    Czech Rep.  (DFT cubic response)
  Hans Joergen Aa. Jensen,  Univ. of Southern Denmark,    Denmark     (DALTON; SIRIUS, RESPONS, ABACUS, MC-srDFT, and much more)
  Dan Jonsson,              UiT The Arctic U. of Norway,  Norway      (Cubic response in RESPONS module)
  Poul Joergensen,          Aarhus University,            Denmark     (RESPONS, ABACUS, and CC modules)
  Maciej Kaminski,          University of Warsaw,         Poland      (CPPh in RESPONS)
  Joanna Kauczor,           Linkoeping University,        Sweden      (Complex polarization propagator (CPP) module)
  Sheela Kirpekar,          Univ. of Southern Denmark,    Denmark     (Mass-velocity & Darwin integrals)
  Erik Kjellgren,           Univ. of Southern Denmark,    Denmark     (MC-srDFT)
  Wim Klopper,              KIT Karlsruhe,                Germany     (R12 code in CC, SIRIUS, and ABACUS modules)
  Stefan Knecht,            ETH Zurich,                   Switzerland (Parallel CI and MCSCF, MC-srDFT)
  Rika Kobayashi,           Australian National Univ.,    Australia   (DIIS in CC, London in MCSCF)
  Henrik Koch,              NTNU,                         Norway      (CC module, Cholesky decomposition)
  Jacob Kongsted,           Univ. of Southern Denmark,    Denmark     (Polarizable embedding, polarizable density embedding, QM/MM)
  Andrea Ligabue,           University of Modena,         Italy       (CTOCD, AOSOPPA)
  Nanna H. List             Univ. of Southern Denmark,    Denmark     (Polarizable embedding)
  Ola B. Lutnaes,           University of Oslo,           Norway      (DFT Hessian)
  Juan I. Melo,             University of Buenos Aires,   Argentina   (LRESC, Relativistic Effects on NMR Shieldings)
  Kurt V. Mikkelsen,        University of Copenhagen,     Denmark     (MC-SCRF and QM/MM)
  Rolf H. Myhre,            NTNU,                         Norway      (Subsystems and CC3)
  Christian Neiss,          Univ. Erlangen-Nuernberg,     Germany     (CCSD(R12))
  Christian B. Nielsen,     University of Copenhagen,     Denmark     (QM/MM)
  Patrick Norman,           KTH Stockholm,                Sweden      (Cubic response and complex frequency response in RESPONS)
  Jeppe Olsen,              Aarhus University,            Denmark     (SIRIUS CI/density modules)
  Jogvan Magnus H. Olsen,   Aarhus University,            Denmark     (Polarizable embedding and polarizable density embedding)
  Anders Osted,             Copenhagen University,        Denmark     (QM/MM)
  Martin J. Packer,         University of Sheffield,      UK          (SOPPA)
  Filip Pawlowski,          Kazimierz Wielki University,  Poland      (CC3)
  Morten N. Pedersen,       Univ. of Southern Denmark,    Denmark     (Polarizable embedding)
  Thomas B. Pedersen,       University of Oslo,           Norway      (Cholesky decomposition)
  Patricio F. Provasi,      University of Northeastern,   Argentina   (Analysis of coupling constants in localized orbitals)
  Peter Reinholdt,          Univ. of Southern Denmark,    Denmark     (Polarizable embedding and polarizable density embedding)
  Zilvinas Rinkevicius,     KTH Stockholm,                Sweden      (open-shell DFT, ESR)
  Elias Rudberg,            KTH Stockholm,                Sweden      (DFT grid and basis info)
  Torgeir A. Ruden,         University of Oslo,           Norway      (Numerical derivatives in ABACUS)
  Kenneth Ruud,             UiT The Arctic U. of Norway,  Norway      (DALTON; ABACUS magnetic properties and much more)
  Pawel Salek,              KTH Stockholm,                Sweden      (DALTON; DFT code)
  Claire C. M. Samson       University of Karlsruhe       Germany     (Boys localization, r12 integrals in ERI)
  Alfredo Sanchez de Meras, University of Valencia,       Spain       (CC module, Cholesky decomposition)
  Trond Saue,               Paul Sabatier University,     France      (direct Fock matrix construction)
  Stephan P. A. Sauer,      University of Copenhagen,     Denmark     (SOPPA(CCSD), SOPPA prop., AOSOPPA, vibrational g-factors)
  Bernd Schimmelpfennig,    Forschungszentrum Karlsruhe,  Germany     (AMFI module)
  Anna K. Schnack-Petersen, University of Copenhagen,     Denmark     (RPA(D) and HRPA(D) properties in AOSOPPA)
  Kristian Sneskov,         Aarhus University,            Denmark     (Polarizable embedding, QM/MM)
  Arnfinn H. Steindal,      UiT The Arctic U. of Norway,  Norway      (parallel QM/MM, polarizable embedding)
  Casper Steinmann,         Aalborg University,           Denmark     (QFIT, polarizable embedding)
  K. O. Sylvester-Hvid,     University of Copenhagen,     Denmark     (MC-SCRF)
  Peter R. Taylor,          VLSCI/Univ. of Melbourne,     Australia   (Symmetry handling ABACUS, integral transformation)
  Andrew M. Teale,          University of Nottingham,     England     (DFT-AC, DFT-D)
  David P. Tew,             University of Bristol,        England     (CCSD(R12))
  Julien Toulouse,          Sorbonne Univ.,               France      (MC-srDFT)
  Olav Vahtras,             KTH Stockholm,                Sweden      (Triplet response, spin-orbit, ESR, TDDFT, open-shell DFT)
  Lucas Visscher,           Vrije Universiteit Amsterdam, Netherlands (Frozen density embedding)
  David J. Wilson,          La Trobe University,          Australia   (DFT Hessian and DFT magnetizabilities)
  Hans Agren,               KTH Stockholm,                Sweden      (SIRIUS module, RESPONS, MC-SCRF solvation)
 --------------------------------------------------------------------------------

     Date and time (Linux)  : Wed Jan 11 14:18:49 2023
     Host name              : cn020                                   

 * Work memory size             :    64000000 =  488.28 megabytes.

 * Directories for basis set searches:
   1) /gpfs/projects/rjh/adrian/fd_compare/dalton/hf/N2/dipole
   2) /gpfs/projects/rjh/adrian/dalton/build/basis


Compilation information
-----------------------

 Who compiled             | ahurtado
 Host                     | sn-mem
 System                   | Linux-3.10.0-1160.24.1.el7.x86_64
 CMake generator          | Unix Makefiles
 Processor                | x86_64
 64-bit integers          | OFF
 MPI                      | ON
 Fortran compiler         | /gpfs/software/intel/oneAPI/2021_4/mpi/2021.4.0/bi
                          | n/mpif90
 Fortran compiler version | GNU Fortran (GCC) 11.2.0
 C compiler               | /gpfs/software/intel/oneAPI/2021_4/mpi/2021.4.0/bi
                          | n/mpicc
 C compiler version       | gcc (GCC) 11.2.0
 C++ compiler             | /gpfs/software/intel/oneAPI/2021_4/mpi/2021.4.0/bi
                          | n/mpicxx
 C++ compiler version     | unknown
 BLAS                     | /gpfs/software/intel/oneAPI/2021_4/mkl/2021.4.0/li
                          | b/intel64/libmkl_gf_lp64.so;/gpfs/software/intel/o
                          | neAPI/2021_4/mkl/2021.4.0/lib/intel64/libmkl_seque
                          | ntial.so;/gpfs/software/intel/oneAPI/2021_4/mkl/20
                          | 21.4.0/lib/intel64/libmkl_core.so;/usr/lib64/libpt
                          | hread.so;/usr/lib64/libm.so
 LAPACK                   | /gpfs/software/intel/oneAPI/2021_4/mkl/2021.4.0/li
                          | b/intel64/libmkl_lapack95_lp64.a;/gpfs/software/in
                          | tel/oneAPI/2021_4/mkl/2021.4.0/lib/intel64/libmkl_
                          | gf_lp64.so
 Static linking           | OFF
 Last Git revision        | 66052b3af5ea7225e31178bf9a8b031913c72190
 Git branch               | (HEAD detached at Dalton2020.0)
 Configuration time       | 2023-01-11 13:33:37.731835

 * MPI parallel run using 20 processes.


   Content of the .dal input file
 ----------------------------------

**DALTON INPUT
.RUN RESPONSE
.DIRECT
**WAVE FUNCTIONS
.HF
**RESPONSE
*LINEAR
.DIPLEN
.FREQUENCIES
9
0.0 0.0182501875 0.036500375 0.0547505625 0.07300075 0.0912509375 0.109501125 0.1277513125 0.1460015
**END OF DALTON INPUT


   Content of the .mol file
 ----------------------------

BASIS
d-aug-cc-pV5Z
blah
blah
Atomtype=1 Atomic
Charge=7 Atoms=2
N_a 0.000000000000 0.000000000000 0.000000000000
N_b 0.000000000000 0.000000000000 2.074320000000


       *******************************************************************
       *********** Output from DALTON general input processing ***********
       *******************************************************************

 --------------------------------------------------------------------------------
   Overall default print level:    0
   Print level for DALTON.STAT:    1

    Parallel calculation using MPI
    AO-direct calculation (in sections where implemented)
    HERMIT 1- and 2-electron integral sections will be executed
    "Old" integral transformation used (limited to max 255 basis functions)
    Wave function sections will be executed (SIRIUS module)
    Dynamic molecular response properties section will be executed (RESPONSE module)
 --------------------------------------------------------------------------------


   ****************************************************************************
   *************** Output of molecule and basis set information ***************
   ****************************************************************************


    The two title cards from your ".mol" input:
    ------------------------------------------------------------------------
 1: blah                                                                    
 2: blah                                                                    
    ------------------------------------------------------------------------

  Atomic type no.    1
  --------------------
  Nuclear charge:   7.00000
  Number of symmetry independent centers:    2
  Number of basis sets to read;    2
  Basis set file used for this atomic type with Z =   7 :
     "/gpfs/projects/rjh/adrian/dalton/build/basis/aug-cc-pV5Z"


                      SYMADD: Requested addition of symmetry
                      --------------------------------------

 Symmetry test threshold:  5.00E-06

@   The molecule is centered at center of mass and rotated
@   so principal axes of inertia are along coordinate axes.

 Symmetry class found: D(oo,h)        

 Symmetry Independent Centres             
 ----------------------------
N_b    7 :      0.00000000     0.00000000     1.03716000  Isotope  1

 The following symmetry elements were found:   X  Y  Z  


                         SYMGRP: Point group information
                         -------------------------------

@    Full point group is: D(oo,h)        
@    Represented as:      D2h

@  * The irrep name for each symmetry:    1: Ag     2: B3u    3: B2u    4: B1g    5: B1u    6: B2g    7: B3g    8: Au 


   * The point group was generated by:

      Reflection in the yz-plane
      Reflection in the xz-plane
      Reflection in the xy-plane

   * Group multiplication table

        |  E   C2z  C2y  C2x   i   Oxy  Oxz  Oyz
   -----+----------------------------------------
     E  |  E   C2z  C2y  C2x   i   Oxy  Oxz  Oyz
    C2z | C2z   E   C2x  C2y  Oxy   i   Oyz  Oxz
    C2y | C2y  C2x   E   C2z  Oxz  Oyz   i   Oxy
    C2x | C2x  C2y  C2z   E   Oyz  Oxz  Oxy   i 
     i  |  i   Oxy  Oxz  Oyz   E   C2z  C2y  C2x
    Oxy | Oxy   i   Oyz  Oxz  C2z   E   C2x  C2y
    Oxz | Oxz  Oyz   i   Oxy  C2y  C2x   E   C2z
    Oyz | Oyz  Oxz  Oxy   i   C2x  C2y  C2z   E 

   * Character table

        |  E   C2z  C2y  C2x   i   Oxy  Oxz  Oyz
   -----+----------------------------------------
    Ag  |   1    1    1    1    1    1    1    1
    B3u |   1   -1   -1    1   -1    1    1   -1
    B2u |   1   -1    1   -1   -1    1   -1    1
    B1g |   1    1   -1   -1    1    1   -1   -1
    B1u |   1    1   -1   -1   -1   -1    1    1
    B2g |   1   -1    1   -1    1   -1    1   -1
    B3g |   1   -1   -1    1    1   -1   -1    1
    Au  |   1    1    1    1   -1   -1   -1   -1

   * Direct product table

        | Ag   B3u  B2u  B1g  B1u  B2g  B3g  Au 
   -----+----------------------------------------
    Ag  | Ag   B3u  B2u  B1g  B1u  B2g  B3g  Au 
    B3u | B3u  Ag   B1g  B2u  B2g  B1u  Au   B3g
    B2u | B2u  B1g  Ag   B3u  B3g  Au   B1u  B2g
    B1g | B1g  B2u  B3u  Ag   Au   B3g  B2g  B1u
    B1u | B1u  B2g  B3g  Au   Ag   B3u  B2u  B1g
    B2g | B2g  B1u  Au   B3g  B3u  Ag   B1g  B2u
    B3g | B3g  Au   B1u  B2g  B2u  B1g  Ag   B3u
    Au  | Au   B3g  B2g  B1u  B1g  B2u  B3u  Ag 


                                 Isotopic Masses
                                 ---------------

                           N_b _1     14.003074
                           N_b _2     14.003074

                       Total mass:    28.006148 amu
                       Natural abundance:  99.261 %

 Center-of-mass coordinates (a.u.):    0.000000    0.000000    0.000000
 Center-of-mass coordinates (Angs):    0.000000    0.000000    0.000000


  Atoms and basis sets
  --------------------

  Number of atom types :    1
  Total number of atoms:    2

  Basis set used is "d-aug-cc-pV5Z" from the basis set library.

  label    atoms   charge   prim   cont     basis
  ----------------------------------------------------------------------
  N_          2    7.0000   180   163      [16s10p6d5f4g3h|8s7p6d5f4g3h]                      
  ----------------------------------------------------------------------
  total:      2   14.0000   360   326
  ----------------------------------------------------------------------
  Spherical harmonic basis used.

  Threshold for neglecting AO integrals:  1.00D-12


  Cartesian Coordinates (a.u.)
  ----------------------------

  Total number of coordinates:    6
  N_b / 1 :     1  x   0.0000000000    2  y   0.0000000000    3  z   1.0371600000
  N_b / 2 :     4  x   0.0000000000    5  y   0.0000000000    6  z  -1.0371600000


  Symmetry Coordinates
  --------------------

  Number of coordinates in each symmetry:     1    1    1    0    1    1    1    0

  Symmetry  Ag  ( 1)

    1   N_b   z    [  3  -    6 ]/2

  Symmetry  B3u ( 2)

    2   N_b   x    [  1  +    4 ]/2

  Symmetry  B2u ( 3)

    3   N_b   y    [  2  +    5 ]/2

  Symmetry  B1u ( 5)

    4   N_b   z    [  3  +    6 ]/2

  Symmetry  B2g ( 6)

    5   N_b   x    [  1  -    4 ]/2

  Symmetry  B3g ( 7)

    6   N_b   y    [  2  -    5 ]/2


   Interatomic separations (in Angstrom):
   --------------------------------------

            N_b _1      N_b _2
            ------      ------
 N_b _1:    0.000000
 N_b _2:    1.097683    0.000000


  Max    interatomic separation is    1.0977 Angstrom (    2.0743 Bohr)
  between atoms    2 and    1, "N_b _2" and "N_b _1".

  Min YX interatomic separation is    1.0977 Angstrom (    2.0743 Bohr)


  Bond distances (Angstrom):
  --------------------------

                  atom 1     atom 2       distance
                  ------     ------       --------
  bond distance:  N_b _2     N_b _1       1.097683




 Principal moments of inertia (u*A**2) and principal axes
 --------------------------------------------------------

   IA       0.000000          0.000000    0.000000    1.000000
   IB       8.436206          0.000000    1.000000    0.000000
   IC       8.436206          1.000000    0.000000    0.000000


 Rotational constants
 --------------------

@    The molecule is linear.

               B =        59905.96 MHz     (    1.998248 cm-1)


@  Nuclear repulsion energy :   23.622199082109 Hartree


  Symmetry Orbitals
  -----------------

  Number of orbitals in each symmetry:          58   40   40   25   58   40   40   25


  Symmetry  Ag ( 1)

    1     N_b      1s         1 +    2
    2     N_b      1s         3 +    4
    3     N_b      1s         5 +    6
    4     N_b      1s         7 +    8
    5     N_b      1s         9 +   10
    6     N_b      1s        11 +   12
    7     N_b      1s        13 +   14
    8     N_b      1s        15 +   16
    9     N_b      2pz       21 -   22
   10     N_b      2pz       27 -   28
   11     N_b      2pz       33 -   34
   12     N_b      2pz       39 -   40
   13     N_b      2pz       45 -   46
   14     N_b      2pz       51 -   52
   15     N_b      2pz       57 -   58
   16     N_b      3d0       63 +   64
   17     N_b      3d2+      67 +   68
   18     N_b      3d0       73 +   74
   19     N_b      3d2+      77 +   78
   20     N_b      3d0       83 +   84
   21     N_b      3d2+      87 +   88
   22     N_b      3d0       93 +   94
   23     N_b      3d2+      97 +   98
   24     N_b      3d0      103 +  104
   25     N_b      3d2+     107 +  108
   26     N_b      3d0      113 +  114
   27     N_b      3d2+     117 +  118
   28     N_b      4f0      125 -  126
   29     N_b      4f2+     129 -  130
   30     N_b      4f0      139 -  140
   31     N_b      4f2+     143 -  144
   32     N_b      4f0      153 -  154
   33     N_b      4f2+     157 -  158
   34     N_b      4f0      167 -  168
   35     N_b      4f2+     171 -  172
   36     N_b      4f0      181 -  182
   37     N_b      4f2+     185 -  186
   38     N_b      5g0      197 +  198
   39     N_b      5g2+     201 +  202
   40     N_b      5g4+     205 +  206
   41     N_b      5g0      215 +  216
   42     N_b      5g2+     219 +  220
   43     N_b      5g4+     223 +  224
   44     N_b      5g0      233 +  234
   45     N_b      5g2+     237 +  238
   46     N_b      5g4+     241 +  242
   47     N_b      5g0      251 +  252
   48     N_b      5g2+     255 +  256
   49     N_b      5g4+     259 +  260
   50     N_b      6h0      271 -  272
   51     N_b      6h2+     275 -  276
   52     N_b      6h4+     279 -  280
   53     N_b      6h0      293 -  294
   54     N_b      6h2+     297 -  298
   55     N_b      6h4+     301 -  302
   56     N_b      6h0      315 -  316
   57     N_b      6h2+     319 -  320
   58     N_b      6h4+     323 -  324


  Symmetry  B3u( 2)

   59     N_b      2px       17 +   18
   60     N_b      2px       23 +   24
   61     N_b      2px       29 +   30
   62     N_b      2px       35 +   36
   63     N_b      2px       41 +   42
   64     N_b      2px       47 +   48
   65     N_b      2px       53 +   54
   66     N_b      3d1+      65 -   66
   67     N_b      3d1+      75 -   76
   68     N_b      3d1+      85 -   86
   69     N_b      3d1+      95 -   96
   70     N_b      3d1+     105 -  106
   71     N_b      3d1+     115 -  116
   72     N_b      4f1+     127 +  128
   73     N_b      4f3+     131 +  132
   74     N_b      4f1+     141 +  142
   75     N_b      4f3+     145 +  146
   76     N_b      4f1+     155 +  156
   77     N_b      4f3+     159 +  160
   78     N_b      4f1+     169 +  170
   79     N_b      4f3+     173 +  174
   80     N_b      4f1+     183 +  184
   81     N_b      4f3+     187 +  188
   82     N_b      5g1+     199 -  200
   83     N_b      5g3+     203 -  204
   84     N_b      5g1+     217 -  218
   85     N_b      5g3+     221 -  222
   86     N_b      5g1+     235 -  236
   87     N_b      5g3+     239 -  240
   88     N_b      5g1+     253 -  254
   89     N_b      5g3+     257 -  258
   90     N_b      6h1+     273 +  274
   91     N_b      6h3+     277 +  278
   92     N_b      6h5+     281 +  282
   93     N_b      6h1+     295 +  296
   94     N_b      6h3+     299 +  300
   95     N_b      6h5+     303 +  304
   96     N_b      6h1+     317 +  318
   97     N_b      6h3+     321 +  322
   98     N_b      6h5+     325 +  326


  Symmetry  B2u( 3)

   99     N_b      2py       19 +   20
  100     N_b      2py       25 +   26
  101     N_b      2py       31 +   32
  102     N_b      2py       37 +   38
  103     N_b      2py       43 +   44
  104     N_b      2py       49 +   50
  105     N_b      2py       55 +   56
  106     N_b      3d1-      61 -   62
  107     N_b      3d1-      71 -   72
  108     N_b      3d1-      81 -   82
  109     N_b      3d1-      91 -   92
  110     N_b      3d1-     101 -  102
  111     N_b      3d1-     111 -  112
  112     N_b      4f3-     119 +  120
  113     N_b      4f1-     123 +  124
  114     N_b      4f3-     133 +  134
  115     N_b      4f1-     137 +  138
  116     N_b      4f3-     147 +  148
  117     N_b      4f1-     151 +  152
  118     N_b      4f3-     161 +  162
  119     N_b      4f1-     165 +  166
  120     N_b      4f3-     175 +  176
  121     N_b      4f1-     179 +  180
  122     N_b      5g3-     191 -  192
  123     N_b      5g1-     195 -  196
  124     N_b      5g3-     209 -  210
  125     N_b      5g1-     213 -  214
  126     N_b      5g3-     227 -  228
  127     N_b      5g1-     231 -  232
  128     N_b      5g3-     245 -  246
  129     N_b      5g1-     249 -  250
  130     N_b      6h5-     261 +  262
  131     N_b      6h3-     265 +  266
  132     N_b      6h1-     269 +  270
  133     N_b      6h5-     283 +  284
  134     N_b      6h3-     287 +  288
  135     N_b      6h1-     291 +  292
  136     N_b      6h5-     305 +  306
  137     N_b      6h3-     309 +  310
  138     N_b      6h1-     313 +  314


  Symmetry  B1g( 4)

  139     N_b      3d2-      59 +   60
  140     N_b      3d2-      69 +   70
  141     N_b      3d2-      79 +   80
  142     N_b      3d2-      89 +   90
  143     N_b      3d2-      99 +  100
  144     N_b      3d2-     109 +  110
  145     N_b      4f2-     121 -  122
  146     N_b      4f2-     135 -  136
  147     N_b      4f2-     149 -  150
  148     N_b      4f2-     163 -  164
  149     N_b      4f2-     177 -  178
  150     N_b      5g4-     189 +  190
  151     N_b      5g2-     193 +  194
  152     N_b      5g4-     207 +  208
  153     N_b      5g2-     211 +  212
  154     N_b      5g4-     225 +  226
  155     N_b      5g2-     229 +  230
  156     N_b      5g4-     243 +  244
  157     N_b      5g2-     247 +  248
  158     N_b      6h4-     263 -  264
  159     N_b      6h2-     267 -  268
  160     N_b      6h4-     285 -  286
  161     N_b      6h2-     289 -  290
  162     N_b      6h4-     307 -  308
  163     N_b      6h2-     311 -  312


  Symmetry  B1u( 5)

  164     N_b      1s         1 -    2
  165     N_b      1s         3 -    4
  166     N_b      1s         5 -    6
  167     N_b      1s         7 -    8
  168     N_b      1s         9 -   10
  169     N_b      1s        11 -   12
  170     N_b      1s        13 -   14
  171     N_b      1s        15 -   16
  172     N_b      2pz       21 +   22
  173     N_b      2pz       27 +   28
  174     N_b      2pz       33 +   34
  175     N_b      2pz       39 +   40
  176     N_b      2pz       45 +   46
  177     N_b      2pz       51 +   52
  178     N_b      2pz       57 +   58
  179     N_b      3d0       63 -   64
  180     N_b      3d2+      67 -   68
  181     N_b      3d0       73 -   74
  182     N_b      3d2+      77 -   78
  183     N_b      3d0       83 -   84
  184     N_b      3d2+      87 -   88
  185     N_b      3d0       93 -   94
  186     N_b      3d2+      97 -   98
  187     N_b      3d0      103 -  104
  188     N_b      3d2+     107 -  108
  189     N_b      3d0      113 -  114
  190     N_b      3d2+     117 -  118
  191     N_b      4f0      125 +  126
  192     N_b      4f2+     129 +  130
  193     N_b      4f0      139 +  140
  194     N_b      4f2+     143 +  144
  195     N_b      4f0      153 +  154
  196     N_b      4f2+     157 +  158
  197     N_b      4f0      167 +  168
  198     N_b      4f2+     171 +  172
  199     N_b      4f0      181 +  182
  200     N_b      4f2+     185 +  186
  201     N_b      5g0      197 -  198
  202     N_b      5g2+     201 -  202
  203     N_b      5g4+     205 -  206
  204     N_b      5g0      215 -  216
  205     N_b      5g2+     219 -  220
  206     N_b      5g4+     223 -  224
  207     N_b      5g0      233 -  234
  208     N_b      5g2+     237 -  238
  209     N_b      5g4+     241 -  242
  210     N_b      5g0      251 -  252
  211     N_b      5g2+     255 -  256
  212     N_b      5g4+     259 -  260
  213     N_b      6h0      271 +  272
  214     N_b      6h2+     275 +  276
  215     N_b      6h4+     279 +  280
  216     N_b      6h0      293 +  294
  217     N_b      6h2+     297 +  298
  218     N_b      6h4+     301 +  302
  219     N_b      6h0      315 +  316
  220     N_b      6h2+     319 +  320
  221     N_b      6h4+     323 +  324


  Symmetry  B2g( 6)

  222     N_b      2px       17 -   18
  223     N_b      2px       23 -   24
  224     N_b      2px       29 -   30
  225     N_b      2px       35 -   36
  226     N_b      2px       41 -   42
  227     N_b      2px       47 -   48
  228     N_b      2px       53 -   54
  229     N_b      3d1+      65 +   66
  230     N_b      3d1+      75 +   76
  231     N_b      3d1+      85 +   86
  232     N_b      3d1+      95 +   96
  233     N_b      3d1+     105 +  106
  234     N_b      3d1+     115 +  116
  235     N_b      4f1+     127 -  128
  236     N_b      4f3+     131 -  132
  237     N_b      4f1+     141 -  142
  238     N_b      4f3+     145 -  146
  239     N_b      4f1+     155 -  156
  240     N_b      4f3+     159 -  160
  241     N_b      4f1+     169 -  170
  242     N_b      4f3+     173 -  174
  243     N_b      4f1+     183 -  184
  244     N_b      4f3+     187 -  188
  245     N_b      5g1+     199 +  200
  246     N_b      5g3+     203 +  204
  247     N_b      5g1+     217 +  218
  248     N_b      5g3+     221 +  222
  249     N_b      5g1+     235 +  236
  250     N_b      5g3+     239 +  240
  251     N_b      5g1+     253 +  254
  252     N_b      5g3+     257 +  258
  253     N_b      6h1+     273 -  274
  254     N_b      6h3+     277 -  278
  255     N_b      6h5+     281 -  282
  256     N_b      6h1+     295 -  296
  257     N_b      6h3+     299 -  300
  258     N_b      6h5+     303 -  304
  259     N_b      6h1+     317 -  318
  260     N_b      6h3+     321 -  322
  261     N_b      6h5+     325 -  326


  Symmetry  B3g( 7)

  262     N_b      2py       19 -   20
  263     N_b      2py       25 -   26
  264     N_b      2py       31 -   32
  265     N_b      2py       37 -   38
  266     N_b      2py       43 -   44
  267     N_b      2py       49 -   50
  268     N_b      2py       55 -   56
  269     N_b      3d1-      61 +   62
  270     N_b      3d1-      71 +   72
  271     N_b      3d1-      81 +   82
  272     N_b      3d1-      91 +   92
  273     N_b      3d1-     101 +  102
  274     N_b      3d1-     111 +  112
  275     N_b      4f3-     119 -  120
  276     N_b      4f1-     123 -  124
  277     N_b      4f3-     133 -  134
  278     N_b      4f1-     137 -  138
  279     N_b      4f3-     147 -  148
  280     N_b      4f1-     151 -  152
  281     N_b      4f3-     161 -  162
  282     N_b      4f1-     165 -  166
  283     N_b      4f3-     175 -  176
  284     N_b      4f1-     179 -  180
  285     N_b      5g3-     191 +  192
  286     N_b      5g1-     195 +  196
  287     N_b      5g3-     209 +  210
  288     N_b      5g1-     213 +  214
  289     N_b      5g3-     227 +  228
  290     N_b      5g1-     231 +  232
  291     N_b      5g3-     245 +  246
  292     N_b      5g1-     249 +  250
  293     N_b      6h5-     261 -  262
  294     N_b      6h3-     265 -  266
  295     N_b      6h1-     269 -  270
  296     N_b      6h5-     283 -  284
  297     N_b      6h3-     287 -  288
  298     N_b      6h1-     291 -  292
  299     N_b      6h5-     305 -  306
  300     N_b      6h3-     309 -  310
  301     N_b      6h1-     313 -  314


  Symmetry  Au ( 8)

  302     N_b      3d2-      59 -   60
  303     N_b      3d2-      69 -   70
  304     N_b      3d2-      79 -   80
  305     N_b      3d2-      89 -   90
  306     N_b      3d2-      99 -  100
  307     N_b      3d2-     109 -  110
  308     N_b      4f2-     121 +  122
  309     N_b      4f2-     135 +  136
  310     N_b      4f2-     149 +  150
  311     N_b      4f2-     163 +  164
  312     N_b      4f2-     177 +  178
  313     N_b      5g4-     189 -  190
  314     N_b      5g2-     193 -  194
  315     N_b      5g4-     207 -  208
  316     N_b      5g2-     211 -  212
  317     N_b      5g4-     225 -  226
  318     N_b      5g2-     229 -  230
  319     N_b      5g4-     243 -  244
  320     N_b      5g2-     247 -  248
  321     N_b      6h4-     263 +  264
  322     N_b      6h2-     267 +  268
  323     N_b      6h4-     285 +  286
  324     N_b      6h2-     289 +  290
  325     N_b      6h4-     307 +  308
  326     N_b      6h2-     311 +  312

  Symmetries of electric field:  B3u(2)  B2u(3)  B1u(5)

  Symmetries of magnetic field:  B3g(7)  B2g(6)  B1g(4)


                     .---------------------------------------.
                     | Starting in Integral Section (HERMIT) |
                     `---------------------------------------'



 ***************************************************************************************
 ****************** Output from **INTEGRALS input processing (HERMIT) ******************
 ***************************************************************************************


 - Using defaults, no **INTEGRALS input found

 Default print level:        1

 Calculation of one-electron Hamiltonian integrals.

 Center of mass  (bohr):      0.000000000000      0.000000000000      0.000000000000
 Operator center (bohr):      0.000000000000      0.000000000000      0.000000000000
 Gauge origin    (bohr):      0.000000000000      0.000000000000      0.000000000000
 Dipole origin   (bohr):      0.000000000000      0.000000000000      0.000000000000


     ************************************************************************
     ************************** Output from HERINT **************************
     ************************************************************************



                      Nuclear contribution to dipole moments
                      --------------------------------------

                    All dipole components are zero by symmetry


  Time used in GABGEN     is       1.49 seconds
  Total CPU  time used in HERMIT:   1.74 seconds
  Total wall time used in HERMIT:   1.75 seconds


                        .----------------------------------.
                        | End of Integral Section (HERMIT) |
                        `----------------------------------'



                   .--------------------------------------------.
                   | Starting in Wave Function Section (SIRIUS) |
                   `--------------------------------------------'


 *** Output from Huckel module :

     Using EWMO model:          F
     Using EHT  model:          T
     Number of Huckel orbitals each symmetry:    3    1    1    0    3    1    1    0

 Huckel EHT eigenvalues for symmetry :  1
          -15.703205      -1.363953      -0.476809

 Huckel EHT eigenvalues for symmetry :  2
           -0.648566

 Huckel EHT eigenvalues for symmetry :  3
           -0.648566

 Huckel EHT eigenvalues for symmetry :  5
          -15.694742      -0.814285      -0.224605

 Huckel EHT eigenvalues for symmetry :  6
           -0.368834

 Huckel EHT eigenvalues for symmetry :  7
           -0.368834

 **********************************************************************
 *SIRIUS* a direct, restricted step, second order MCSCF program       *
 **********************************************************************

 
     Date and time (Linux)  : Wed Jan 11 14:18:51 2023
     Host name              : cn020                                   

 Title lines from ".mol" input file:
     blah                                                                    
     blah                                                                    

 Print level on unit LUPRI =   2 is   0
 Print level on unit LUW4  =   2 is   5

@    Restricted, closed shell Hartree-Fock calculation.

@    Time-dependent Hartree-Fock calculation (random phase approximation).
 Fock matrices are calculated directly and in parallel without use of integrals on disk.

 Initial molecular orbitals are obtained according to
 ".MOSTART EHT   " input option

     Wave function specification
     ============================
@    Wave function type        --- HF ---
@    Number of closed shell electrons          14
@    Number of electrons in active shells       0
@    Total charge of the molecule               0

@    Spin multiplicity and 2 M_S                1         0
@    Total number of symmetries                 8 (point group: D2h)
@    Reference state symmetry                   1 (irrep name : Ag )

     Orbital specifications
     ======================
@    Abelian symmetry species          All |    1    2    3    4    5    6    7    8
@                                          |  Ag   B3u  B2u  B1g  B1u  B2g  B3g  Au 
                                       --- |  ---  ---  ---  ---  ---  ---  ---  ---
@    Total number of orbitals          326 |   58   40   40   25   58   40   40   25
@    Number of basis functions         326 |   58   40   40   25   58   40   40   25

      ** Automatic occupation of RHF orbitals **

      -- Initial occupation of symmetries is determined from extended Huckel guess.           
      -- Initial occupation of symmetries is :
@    Occupied SCF orbitals               7 |    3    1    1    0    2    0    0    0

     Maximum number of Fock   iterations      0
     Maximum number of DIIS   iterations     60
     Maximum number of QC-SCF iterations     60
     Threshold for SCF convergence     1.00D-05

    INFORMATION: Switched to "new" integral transformation (from 1988 ;-) )
    because more than 255 basis functions.


 ***********************************************
 ***** DIIS acceleration of SCF iterations *****
 ***********************************************

 C1-DIIS algorithm; max error vectors =    8

 Automatic occupation of symmetries with  14 electrons.

 Iter     Total energy    Error norm  Delta(E)    SCF occupation
 -----------------------------------------------------------------------------
   1  Screening settings (-IFTHRS, JTDIIS, DIFDEN, times)   -8    1    T  1.20D+01  1.20D+01
@  1  -108.651944781       3.12D+00  -1.09D+02     3   1   1   0   2   0   0   0
      Virial theorem: -V/T =      2.009463
@    MULPOP   N_b _1  0.00; N_b _2  0.00; 
   1  Level shift: doubly occupied orbital energies shifted by -2.00D-01
 -----------------------------------------------------------------------------
   2  Screening settings (-IFTHRS, JTDIIS, DIFDEN, times)   -8    2    T  1.20D+01  1.20D+01
@  2  -108.976849674       6.28D-01  -3.25D-01     3   1   1   0   2   0   0   0
      Virial theorem: -V/T =      1.996066
@    MULPOP   N_b _1 -0.00; N_b _2 -0.00; 
   2  Level shift: doubly occupied orbital energies shifted by -5.00D-02
 -----------------------------------------------------------------------------
   3  Screening settings (-IFTHRS, JTDIIS, DIFDEN, times)   -8    3    T  1.20D+01  1.20D+01
@  3  -108.991723875       1.18D-01  -1.49D-02     3   1   1   0   2   0   0   0
      Virial theorem: -V/T =      2.002485
@    MULPOP   N_b _1 -0.00; N_b _2 -0.00; 
   3  Level shift: doubly occupied orbital energies shifted by -1.25D-02
 -----------------------------------------------------------------------------
   4  Screening settings (-IFTHRS, JTDIIS, DIFDEN, times)  -12    4    F  1.20D+01  1.20D+01
@  4  -108.992891306       2.66D-02  -1.17D-03     3   1   1   0   2   0   0   0
      Virial theorem: -V/T =      2.001864
@    MULPOP   N_b _1 -0.00; N_b _2 -0.00; 
 -----------------------------------------------------------------------------
   5  Screening settings (-IFTHRS, JTDIIS, DIFDEN, times)  -12    5    T  1.20D+01  1.20D+01
@  5  -108.992962373       3.95D-03  -7.11D-05     3   1   1   0   2   0   0   0
      Virial theorem: -V/T =      2.002086
@    MULPOP   N_b _1 -0.00; N_b _2 -0.00; 
 -----------------------------------------------------------------------------
   6  Screening settings (-IFTHRS, JTDIIS, DIFDEN, times)  -12    6    T  1.20D+01  1.20D+01
@  6  -108.992964326       4.44D-04  -1.95D-06     3   1   1   0   2   0   0   0
      Virial theorem: -V/T =      2.002072
@    MULPOP   N_b _1  0.00; N_b _2  0.00; 
 -----------------------------------------------------------------------------
   7  Screening settings (-IFTHRS, JTDIIS, DIFDEN, times)  -12    7    T  1.20D+01  1.20D+01
@  7  -108.992964348       4.45D-05  -2.13D-08     3   1   1   0   2   0   0   0
      Virial theorem: -V/T =      2.002076
@    MULPOP   N_b _1  0.00; N_b _2  0.00; 
 -----------------------------------------------------------------------------
   8  Screening settings (-IFTHRS, JTDIIS, DIFDEN, times)  -12    8    T  1.19D+01  1.19D+01
@  8  -108.992964348       6.73D-06  -2.24D-10     3   1   1   0   2   0   0   0

@ *** DIIS converged in   8 iterations !
@     Converged SCF energy, gradient:   -108.992964347753    6.73D-06
    - total time used in SIRFCK :              0.00 seconds


 *** SCF orbital energy analysis ***

 Only the 20 lowest virtual orbital energies printed in each symmetry.

 Number of electrons :   14
 Orbital occupations :    3    1    1    0    2    0    0    0

 Sym       Hartree-Fock orbital energies

1 Ag    -15.68310553    -1.47101567    -0.63448465     0.02577745     0.03872767
          0.10592651     0.10623495     0.13837909     0.22582955     0.34600475
          0.35204465     0.37657894     0.38644183     0.62095369     0.70676480
          0.86303130     0.96060530     0.98623569     1.02568262     1.26665660
          1.29619205     1.33124829     1.87691390

2 B3u    -0.61419862     0.02823291     0.11706377     0.13041089     0.30160207
          0.32299554     0.39580377     0.58942330     0.89219165     0.89252364
          1.12897657     1.15019588     1.31518512     1.65124236     2.02939969
          2.26425411     2.29403428     2.54208018     2.68393989     2.92356020
          2.99561708

3 B2u    -0.61419862     0.02823291     0.11706377     0.13041089     0.30160207
          0.32299554     0.39580377     0.58942330     0.89219165     0.89252364
          1.12897657     1.15019588     1.31518512     1.65124236     2.02939969
          2.26425411     2.29403428     2.54208018     2.68393989     2.92356020
          2.99561708

4 B1g     0.10623495     0.34600475     0.37657894     0.86303130     0.96060530
          1.02568262     1.29619205     2.20161296     2.29040569     2.29494612
          2.52003507     2.72476431     3.89783969     5.31494575     5.42239124
          5.87513097     5.92323020     7.04749733     7.65058097    12.45923456

5 B1u   -15.67956154    -0.77917644     0.02023498     0.06553436     0.12675895
          0.12782688     0.15095736     0.30420112     0.32260351     0.32549981
          0.55000381     0.57647848     0.57756059     0.83054009     0.93044971
          1.02357102     1.10797116     1.13485174     1.18271046     1.29967248
          1.68817719     1.80590220

6 B2g     0.03684618     0.10129574     0.15079697     0.23521054     0.37477746
          0.37656405     0.46207831     0.85084256     0.96774818     1.02861436
          1.27612683     1.28535640     1.59758636     1.93971019     2.21627570
          2.34738458     2.57023856     2.79941361     2.95880702     3.54444390

7 B3g     0.03684618     0.10129574     0.15079697     0.23521054     0.37477746
          0.37656405     0.46207831     0.85084256     0.96774818     1.02861436
          1.27612683     1.28535640     1.59758636     1.93971019     2.21627570
          2.34738458     2.57023856     2.79941361     2.95880702     3.54444390

8 Au      0.12675895     0.32260351     0.57647848     0.93044971     1.13485174
          1.18271046     1.68817719     2.43201714     2.47220040     2.69345761
          3.09019950     3.12878254     4.27929392     5.74879584     5.88045077
          6.19656328     6.62712953     7.89509638     9.43746192    13.39434637

    E(LUMO) :     0.02023498 au (symmetry 5)
  - E(HOMO) :    -0.61419862 au (symmetry 2)
  ------------------------------------------
    gap     :     0.63443360 au

 --- Writing SIRIFC interface file

 CPU and wall time for SCF :      96.006      96.055


                       .-----------------------------------.
                       | --- Final results from SIRIUS --- |
                       `-----------------------------------'


@    Spin multiplicity:           1
@    Spatial symmetry:            1 ( irrep  Ag  in D2h )
@    Total charge of molecule:    0

@    Final HF energy:            -108.992964347753                 
@    Nuclear repulsion:            23.622199082109
@    Electronic energy:          -132.615163429862

@    Final gradient norm:           0.000006725860

 
     Date and time (Linux)  : Wed Jan 11 14:20:27 2023
     Host name              : cn020                                   

File label for MO orbitals:  11Jan23   FOCKDIIS

 (Only coefficients > 0.0100 are printed.)

 Molecular orbitals for symmetry species 1  (Ag )
 ------------------------------------------------

    Orbital         1        2        3        4        5        6        7
   1 N_b :1s     0.7073  -0.0069   0.0016   0.0021   0.0016   0.0062  -0.0000
   2 N_b :1s     0.0023   0.6685   0.2317  -0.0334  -0.0225   0.0889  -0.0000
   3 N_b :1s     0.0003   0.0021  -0.0008   0.0102   0.0086   0.0200  -0.0000
   4 N_b :1s    -0.0014  -0.0273   0.0064  -0.0711  -0.0579  -0.1299  -0.0000
   5 N_b :1s    -0.0013  -0.1370   0.0937  -0.5529  -0.5788  -1.2587  -0.0000
   6 N_b :1s    -0.0004  -0.0937   0.1208  -0.2541  -0.7857  -2.2514   0.0000
   7 N_b :1s     0.0000   0.0032   0.0091  -1.5341  -4.1907  -9.0388   0.0000
   8 N_b :1s     0.0000   0.0022  -0.0026   1.6327   2.1728   4.9472   0.0000
   9 N_b :2pz   -0.0081  -0.3454   0.6981  -0.0481  -0.0263   0.0285  -0.0000
  11 N_b :2pz    0.0026   0.0284  -0.0308   0.0843   0.0824   0.1809   0.0000
  12 N_b :2pz    0.0021   0.0441  -0.0510  -0.2612  -0.2199  -0.4431   0.0000
  13 N_b :2pz    0.0005   0.0072   0.0001  -0.8756  -1.4693  -3.7603  -0.0000
  14 N_b :2pz   -0.0004  -0.0153   0.0186  -3.5866 -10.2069 -24.2668  -0.0000
  15 N_b :2pz   -0.0000  -0.0002   0.0004   1.4932  -5.0907  -4.4563  -0.0000
  18 N_b :3d0    0.0003   0.0083  -0.0089  -0.0061  -0.0058  -0.0108  -0.0000
  20 N_b :3d0    0.0004   0.0276  -0.0214   0.0114   0.0076   0.0177   0.0000
  22 N_b :3d0    0.0004   0.0336  -0.0254   0.2054   0.2453   0.5996   0.0000
  23 N_b :3d2+  -0.0000  -0.0000  -0.0000   0.0000   0.0000  -0.0000  -0.1530
  24 N_b :3d0    0.0002   0.0133  -0.0175   0.4834   0.7825   2.0107   0.0000
  25 N_b :3d2+   0.0000   0.0000   0.0000  -0.0000  -0.0000   0.0000   0.1884
  26 N_b :3d0    0.0001   0.0027  -0.0032   0.7198   2.6389   6.2837   0.0000
  27 N_b :3d2+  -0.0000   0.0000  -0.0000   0.0000   0.0000  -0.0000  -0.5939
  32 N_b :4f0   -0.0002  -0.0117   0.0068  -0.0440  -0.0476  -0.1076  -0.0000
  34 N_b :4f0   -0.0002  -0.0059   0.0043  -0.1152  -0.1089  -0.2449  -0.0000
  35 N_b :4f2+  -0.0000  -0.0000  -0.0000   0.0000   0.0000  -0.0000  -0.1230
  36 N_b :4f0   -0.0000  -0.0010   0.0017  -0.0753  -0.1843  -0.4335  -0.0000
  41 N_b :5g0    0.0001   0.0030  -0.0027   0.0039   0.0056   0.0125  -0.0000
  44 N_b :5g0    0.0001   0.0016  -0.0003   0.0120   0.0041   0.0089   0.0000
  45 N_b :5g2+   0.0000   0.0000   0.0000  -0.0000  -0.0000   0.0000   0.0210
  47 N_b :5g0    0.0001   0.0007  -0.0005   0.0497   0.0399   0.0626   0.0000
  48 N_b :5g2+   0.0000   0.0000   0.0000  -0.0000  -0.0000   0.0000   0.0986
  56 N_b :6h0   -0.0001   0.0000  -0.0005  -0.0114  -0.0035   0.0002  -0.0000
  57 N_b :6h2+  -0.0000  -0.0000  -0.0000   0.0000   0.0000  -0.0000  -0.0324

    Orbital         8        9       10       11       12       13
   1 N_b :1s     0.0118   0.0059  -0.0000   0.0286  -0.0000   0.0023
   2 N_b :1s     0.1139  -0.1253  -0.0000   0.1327  -0.0000   0.0114
   3 N_b :1s     0.0389   0.0223  -0.0000   0.0874  -0.0000  -0.0013
   4 N_b :1s    -0.2647  -0.1368  -0.0000  -0.5917  -0.0000  -0.0250
   5 N_b :1s    -2.0742  -0.9842   0.0000  -4.1980  -0.0000   0.7847
   6 N_b :1s    -1.8254  -5.9486   0.0000  -8.0048   0.0000   4.7598
   7 N_b :1s    -4.9791  -6.4397  -0.0000  -1.4240   0.0000   3.1595
   8 N_b :1s     3.2755   4.5670   0.0000   3.1143   0.0000  -2.7321
   9 N_b :2pz    0.0905  -0.0810  -0.0000  -0.1398  -0.0000   0.0792
  10 N_b :2pz    0.0098   0.0163   0.0000   0.0237   0.0000  -0.0160
  11 N_b :2pz    0.3119   0.1440   0.0000   0.6555   0.0000  -0.0538
  12 N_b :2pz   -0.9300  -0.1186   0.0000  -1.6241  -0.0000   0.0277
  13 N_b :2pz   -4.2416  -6.5777   0.0000 -12.3120  -0.0000   5.5325
  14 N_b :2pz  -15.7361 -27.8209  -0.0000 -20.8634  -0.0000  16.3401
  15 N_b :2pz    0.0137  -2.5766  -0.0000  -0.2680  -0.0000   1.2686
  18 N_b :3d0   -0.0235  -0.0057   0.0000  -0.0317  -0.0000   0.0025
  20 N_b :3d0    0.0333  -0.0202   0.0000   0.0602   0.0000  -0.0041
  21 N_b :3d2+  -0.0000   0.0000   0.0201   0.0000  -0.0462  -0.0000
  22 N_b :3d0    0.8619   0.7401  -0.0000   2.1281   0.0000  -0.3452
  23 N_b :3d2+  -0.0000   0.0000  -0.4381   0.0000   0.0297  -0.0000
  24 N_b :3d0    2.3587   3.3115   0.0000   6.7583   0.0000  -2.5154
  25 N_b :3d2+   0.0000  -0.0000   0.8820  -0.0000   0.4782   0.0000
  26 N_b :3d0    2.9907   6.4553   0.0000   3.8796   0.0000  -3.6403
  27 N_b :3d2+  -0.0000   0.0000  -0.3886   0.0000  -0.0981  -0.0000
  32 N_b :4f0   -0.1694  -0.0916   0.0000  -0.3482  -0.0000   0.0681
  33 N_b :4f2+  -0.0000   0.0000   0.0069   0.0000   0.0325  -0.0000
  34 N_b :4f0   -0.4453  -0.2124   0.0000  -0.9712  -0.0000   0.0973
  35 N_b :4f2+  -0.0000   0.0000  -0.3835   0.0000  -0.1383  -0.0000
  36 N_b :4f0   -0.3291  -0.5132  -0.0000  -0.3240  -0.0000   1.7940
  37 N_b :4f2+   0.0000  -0.0000   0.0699  -0.0000   1.6127   0.0000
  41 N_b :5g0    0.0146   0.0128   0.0000   0.0266  -0.0000  -0.0237
  42 N_b :5g2+  -0.0000   0.0000  -0.0122   0.0000  -0.0193  -0.0000
  44 N_b :5g0    0.0439  -0.0008  -0.0000   0.1094   0.0000   0.0725
  45 N_b :5g2+   0.0000  -0.0000   0.0671  -0.0000   0.1046   0.0000
  47 N_b :5g0    0.1495  -0.0901  -0.0000   0.0677   0.0000  -0.2003
  48 N_b :5g2+   0.0000  -0.0000   0.2971  -0.0000  -0.1844   0.0000
  53 N_b :6h0    0.0026  -0.0122  -0.0000  -0.0142   0.0000  -0.0106
  54 N_b :6h2+  -0.0000   0.0000   0.0163   0.0000  -0.0155  -0.0000
  56 N_b :6h0   -0.0299   0.0475   0.0000  -0.0041  -0.0000  -0.0045
  57 N_b :6h2+  -0.0000   0.0000  -0.0989   0.0000  -0.0127  -0.0000

 Molecular orbitals for symmetry species 2  (B3u)
 ------------------------------------------------

    Orbital         1        2        3        4        5        6        7
   1 N_b :2px    0.6357   0.0267  -0.1083   0.0523  -0.0000   0.0941  -0.1822
   2 N_b :2px   -0.0046   0.0038   0.0138  -0.0029   0.0000   0.0049  -0.0528
   3 N_b :2px   -0.0101  -0.0213  -0.0710   0.0054  -0.0000  -0.0993   0.3200
   4 N_b :2px   -0.0279  -0.0304   0.0055   0.3188   0.0000  -1.0626   0.3038
   5 N_b :2px   -0.0227  -0.1370  -0.2852   1.0865  -0.0000  -2.3946   1.7793
   6 N_b :2px    0.0010   0.2731   1.1596  -0.2007  -0.0000   0.7490  -1.1222
   7 N_b :2px    0.0003  -0.6430  -0.5410   0.0259   0.0000  -0.0503   0.3015
   9 N_b :3d1+  -0.0102   0.0000   0.0049   0.0006  -0.0000  -0.0046  -0.0030
  10 N_b :3d1+  -0.0289   0.0032   0.0184  -0.0137   0.0000   0.0736  -0.0565
  11 N_b :3d1+  -0.0239  -0.0261  -0.0482   0.0720   0.0000  -0.3650   0.3679
  12 N_b :3d1+  -0.0125  -0.2128  -0.2660   1.7395  -0.0000  -4.7554   2.6868
  13 N_b :3d1+  -0.0018   0.0139   1.0622   3.1120  -0.0000  -2.8220  -0.1445
  17 N_b :4f3+   0.0000   0.0000  -0.0000   0.0000  -0.0155   0.0000  -0.0000
  18 N_b :4f1+   0.0076   0.0067   0.0178   0.0023   0.0000   0.0723  -0.1061
  19 N_b :4f3+  -0.0000  -0.0000   0.0000  -0.0000   0.0526  -0.0000   0.0000
  20 N_b :4f1+   0.0036   0.0579   0.1198  -0.2784  -0.0000   0.8975  -0.7925
  21 N_b :4f3+   0.0000   0.0000  -0.0000   0.0000  -0.1843   0.0000  -0.0000
  22 N_b :4f1+   0.0032   0.0744  -0.0371  -1.0483   0.0000   2.7355  -0.5483
  23 N_b :4f3+  -0.0000  -0.0000   0.0000  -0.0000   0.6076  -0.0000   0.0000
  26 N_b :5g1+  -0.0027  -0.0017  -0.0030   0.0064  -0.0000  -0.0206   0.0198
  28 N_b :5g1+  -0.0011  -0.0043  -0.0182  -0.0164  -0.0000  -0.0127   0.0835
  30 N_b :5g1+  -0.0008  -0.0157  -0.0180   0.1232   0.0000  -0.3394   0.1712
  31 N_b :5g3+  -0.0000  -0.0000   0.0000  -0.0000  -0.0332  -0.0000   0.0000
  35 N_b :6h1+   0.0008   0.0014   0.0049   0.0008   0.0000   0.0059  -0.0224
  38 N_b :6h1+  -0.0002   0.0015   0.0016  -0.0099   0.0000   0.0343  -0.0169
  39 N_b :6h3+   0.0000   0.0000  -0.0000   0.0000   0.0138   0.0000  -0.0000

    Orbital         8        9       10       11
   1 N_b :2px    0.2056  -0.0000   0.0207   0.0210
   2 N_b :2px   -0.0107   0.0000  -0.1124   0.0396
   3 N_b :2px    0.6703   0.0000   1.5764  -1.0545
   4 N_b :2px    3.3237   0.0000   3.4813   0.0520
   5 N_b :2px    1.8675   0.0000   0.5634   1.2573
   6 N_b :2px   -0.8965  -0.0000  -0.7637  -0.3925
   7 N_b :2px    0.0477   0.0000   0.1254   0.0497
   9 N_b :3d1+   0.0030   0.0000  -0.0293   0.0059
  10 N_b :3d1+  -0.3907   0.0000  -0.6872   0.3499
  11 N_b :3d1+   1.6359   0.0000   2.5181  -1.3841
  12 N_b :3d1+   9.3271  -0.0000   6.9527   2.1674
  13 N_b :3d1+   1.8341  -0.0000   0.1505   0.8355
  14 N_b :4f1+  -0.0065  -0.0000  -0.0087   0.0118
  15 N_b :4f3+  -0.0000  -0.0108  -0.0000  -0.0000
  16 N_b :4f1+   0.0734  -0.0000   0.1136  -0.0884
  17 N_b :4f3+   0.0000   0.0530   0.0000   0.0000
  18 N_b :4f1+  -0.5017  -0.0000  -0.9132   0.6901
  19 N_b :4f3+  -0.0000  -0.1582  -0.0000  -0.0000
  20 N_b :4f1+  -2.6841  -0.0000  -4.1183   0.6417
  21 N_b :4f3+   0.0000   0.8715   0.0000   0.0000
  22 N_b :4f1+  -3.2986   0.0000  -1.4493  -1.0934
  23 N_b :4f3+  -0.0000  -0.3718  -0.0000  -0.0000
  26 N_b :5g1+   0.0539  -0.0000   0.0788   0.0072
  27 N_b :5g3+   0.0000   0.0113   0.0000   0.0000
  28 N_b :5g1+   0.3191  -0.0000   0.7183  -0.7100
  29 N_b :5g3+  -0.0000  -0.0502  -0.0000  -0.0000
  30 N_b :5g1+   0.7160   0.0000   0.6690   0.8450
  31 N_b :5g3+  -0.0000   0.1943  -0.0000  -0.0000
  35 N_b :6h1+  -0.0524   0.0000  -0.1220   0.0885
  36 N_b :6h3+  -0.0000   0.0228  -0.0000  -0.0000
  38 N_b :6h1+  -0.1150  -0.0000  -0.1422   0.0350
  39 N_b :6h3+   0.0000  -0.0614   0.0000   0.0000

 Molecular orbitals for symmetry species 3  (B2u)
 ------------------------------------------------

    Orbital         1        2        3        4        5        6        7
   1 N_b :2py    0.6357   0.0267  -0.1083   0.0523   0.0000   0.0941  -0.1822
   2 N_b :2py   -0.0046   0.0038   0.0138  -0.0029  -0.0000   0.0049  -0.0528
   3 N_b :2py   -0.0101  -0.0213  -0.0710   0.0054  -0.0000  -0.0993   0.3200
   4 N_b :2py   -0.0279  -0.0304   0.0055   0.3188  -0.0000  -1.0626   0.3038
   5 N_b :2py   -0.0227  -0.1370  -0.2852   1.0865  -0.0000  -2.3946   1.7793
   6 N_b :2py    0.0010   0.2731   1.1596  -0.2007   0.0000   0.7490  -1.1222
   7 N_b :2py    0.0003  -0.6430  -0.5410   0.0259  -0.0000  -0.0503   0.3015
   9 N_b :3d1-  -0.0102   0.0000   0.0049   0.0006  -0.0000  -0.0046  -0.0030
  10 N_b :3d1-  -0.0289   0.0032   0.0184  -0.0137  -0.0000   0.0736  -0.0565
  11 N_b :3d1-  -0.0239  -0.0261  -0.0482   0.0720  -0.0000  -0.3650   0.3679
  12 N_b :3d1-  -0.0125  -0.2128  -0.2660   1.7395   0.0000  -4.7554   2.6868
  13 N_b :3d1-  -0.0018   0.0139   1.0622   3.1120   0.0000  -2.8220  -0.1445
  16 N_b :4f3-  -0.0000  -0.0000   0.0000  -0.0000  -0.0155  -0.0000   0.0000
  18 N_b :4f3-   0.0000   0.0000  -0.0000   0.0000   0.0526   0.0000  -0.0000
  19 N_b :4f1-   0.0076   0.0067   0.0178   0.0023  -0.0000   0.0723  -0.1061
  20 N_b :4f3-  -0.0000  -0.0000   0.0000  -0.0000  -0.1843  -0.0000   0.0000
  21 N_b :4f1-   0.0036   0.0579   0.1198  -0.2784  -0.0000   0.8975  -0.7925
  22 N_b :4f3-   0.0000   0.0000  -0.0000   0.0000   0.6076   0.0000  -0.0000
  23 N_b :4f1-   0.0032   0.0744  -0.0371  -1.0483  -0.0000   2.7355  -0.5483
  27 N_b :5g1-  -0.0027  -0.0017  -0.0030   0.0064  -0.0000  -0.0206   0.0198
  29 N_b :5g1-  -0.0011  -0.0043  -0.0182  -0.0164   0.0000  -0.0127   0.0835
  30 N_b :5g3-   0.0000   0.0000  -0.0000   0.0000  -0.0332   0.0000  -0.0000
  31 N_b :5g1-  -0.0008  -0.0157  -0.0180   0.1232   0.0000  -0.3394   0.1712
  37 N_b :6h1-   0.0008   0.0014   0.0049   0.0008  -0.0000   0.0059  -0.0224
  39 N_b :6h3-  -0.0000  -0.0000   0.0000  -0.0000   0.0138  -0.0000   0.0000
  40 N_b :6h1-  -0.0002   0.0015   0.0016  -0.0099  -0.0000   0.0343  -0.0169

    Orbital         8        9       10       11
   1 N_b :2py    0.2056   0.0000   0.0207   0.0210
   2 N_b :2py   -0.0107  -0.0000  -0.1124   0.0396
   3 N_b :2py    0.6703  -0.0000   1.5764  -1.0545
   4 N_b :2py    3.3237  -0.0000   3.4813   0.0520
   5 N_b :2py    1.8675  -0.0000   0.5634   1.2573
   6 N_b :2py   -0.8965   0.0000  -0.7637  -0.3925
   7 N_b :2py    0.0477  -0.0000   0.1254   0.0497
   9 N_b :3d1-   0.0030  -0.0000  -0.0293   0.0059
  10 N_b :3d1-  -0.3907  -0.0000  -0.6872   0.3499
  11 N_b :3d1-   1.6359  -0.0000   2.5181  -1.3841
  12 N_b :3d1-   9.3271   0.0000   6.9527   2.1674
  13 N_b :3d1-   1.8341   0.0000   0.1505   0.8355
  14 N_b :4f3-   0.0000  -0.0108   0.0000   0.0000
  15 N_b :4f1-  -0.0065   0.0000  -0.0087   0.0118
  16 N_b :4f3-  -0.0000   0.0530  -0.0000  -0.0000
  17 N_b :4f1-   0.0734   0.0000   0.1136  -0.0884
  18 N_b :4f3-   0.0000  -0.1582   0.0000   0.0000
  19 N_b :4f1-  -0.5017   0.0000  -0.9132   0.6901
  20 N_b :4f3-  -0.0000   0.8715  -0.0000  -0.0000
  21 N_b :4f1-  -2.6841   0.0000  -4.1183   0.6417
  22 N_b :4f3-   0.0000  -0.3718   0.0000   0.0000
  23 N_b :4f1-  -3.2986  -0.0000  -1.4493  -1.0934
  26 N_b :5g3-  -0.0000   0.0113  -0.0000  -0.0000
  27 N_b :5g1-   0.0539  -0.0000   0.0788   0.0072
  28 N_b :5g3-   0.0000  -0.0502   0.0000   0.0000
  29 N_b :5g1-   0.3191  -0.0000   0.7183  -0.7100
  30 N_b :5g3-   0.0000   0.1943   0.0000   0.0000
  31 N_b :5g1-   0.7160  -0.0000   0.6690   0.8450
  36 N_b :6h3-   0.0000   0.0228   0.0000   0.0000
  37 N_b :6h1-  -0.0524  -0.0000  -0.1220   0.0885
  39 N_b :6h3-  -0.0000  -0.0614  -0.0000  -0.0000
  40 N_b :6h1-  -0.1150   0.0000  -0.1422   0.0350

 Molecular orbitals for symmetry species 4  (B1g)
 ------------------------------------------------

    Orbital         1        2        3        4        5        6        7
   2 N_b :3d2-  -0.0017   0.0006   0.0042   0.0289   0.0000  -0.0048   0.0590
   3 N_b :3d2-  -0.0030   0.0201  -0.0462   0.0291   0.0000  -0.1191  -0.2416
   4 N_b :3d2-  -0.1530  -0.4381   0.0297   1.9328   0.0000  -0.2387  -3.6495
   5 N_b :3d2-   0.1884   0.8820   0.4782  -0.8092   0.0000   0.3989   0.9043
   6 N_b :3d2-  -0.5939  -0.3886  -0.0981   0.2181   0.0000  -0.1016  -0.1111
   8 N_b :4f2-   0.0008   0.0016  -0.0012  -0.0095   0.0000  -0.0026  -0.0506
   9 N_b :4f2-   0.0032   0.0069   0.0325  -0.0320   0.0000   0.0909   0.3140
  10 N_b :4f2-  -0.1230  -0.3835  -0.1383   1.2763   0.0000  -0.6394  -4.9258
  11 N_b :4f2-   0.0075   0.0699   1.6127   0.3404   0.0000   0.8711  -0.2463
  12 N_b :5g4-   0.0000   0.0000   0.0000   0.0000   0.0125   0.0000   0.0000
  13 N_b :5g2-   0.0008   0.0027   0.0032  -0.0047   0.0000   0.0113   0.0057
  14 N_b :5g4-   0.0000   0.0000   0.0000   0.0000  -0.0763   0.0000   0.0000
  15 N_b :5g2-  -0.0038  -0.0122  -0.0193   0.0213   0.0000  -0.0692  -0.0299
  16 N_b :5g4-   0.0000   0.0000   0.0000   0.0000   0.2516   0.0000   0.0000
  17 N_b :5g2-   0.0210   0.0671   0.1046  -0.1292   0.0000   0.3679   0.3478
  18 N_b :5g4-   0.0000   0.0000   0.0000   0.0000  -0.6829   0.0000   0.0000
  19 N_b :5g2-   0.0986   0.2971  -0.1844  -1.3513   0.0000  -0.6927   3.9666
  21 N_b :6h2-  -0.0013  -0.0037   0.0022   0.0121   0.0000   0.0036  -0.0123
  22 N_b :6h4-   0.0000   0.0000   0.0000   0.0000   0.0152   0.0000   0.0000
  23 N_b :6h2-   0.0056   0.0163  -0.0155  -0.0617   0.0000  -0.0339   0.0732
  24 N_b :6h4-   0.0000   0.0000   0.0000   0.0000  -0.0226   0.0000   0.0000
  25 N_b :6h2-  -0.0324  -0.0989  -0.0127   0.3300   0.0000  -0.0797  -0.7812

    Orbital         8        9       10
   1 N_b :3d2-   0.0179  -0.0228   0.0000
   2 N_b :3d2-   0.0195   0.1010   0.0000
   3 N_b :3d2-   0.1761  -0.7774   0.0000
   4 N_b :3d2-  -1.7040  -1.2659   0.0000
   5 N_b :3d2-   0.6312   0.3927   0.0000
   6 N_b :3d2-  -0.1416  -0.0373   0.0000
   7 N_b :4f2-  -0.0149   0.0226   0.0000
   8 N_b :4f2-   0.0355  -0.0579   0.0000
   9 N_b :4f2-  -0.0512   0.8251   0.0000
  10 N_b :4f2-  -1.6799  -2.7488   0.0000
  11 N_b :4f2-   0.0957   0.3393   0.0000
  13 N_b :5g2-   0.0221   0.0183   0.0000
  14 N_b :5g4-   0.0000   0.0000  -0.0137
  15 N_b :5g2-  -0.1131  -0.1346   0.0000
  16 N_b :5g4-   0.0000   0.0000   0.0207
  17 N_b :5g2-   0.7220   1.0341   0.0000
  18 N_b :5g4-   0.0000   0.0000  -0.1341
  19 N_b :5g2-   0.9759   1.3261   0.0000
  20 N_b :6h4-   0.0000   0.0000  -0.0467
  21 N_b :6h2-  -0.0260   0.0125   0.0000
  22 N_b :6h4-   0.0000   0.0000   0.1894
  23 N_b :6h2-   0.1056  -0.0886   0.0000
  24 N_b :6h4-   0.0000   0.0000  -0.7669
  25 N_b :6h2-  -0.8688  -0.6480   0.0000

 Molecular orbitals for symmetry species 5  (B1u)
 ------------------------------------------------

    Orbital         1        2        3        4        5        6        7
   1 N_b :1s     0.7073   0.0024  -0.0015  -0.0042  -0.0000   0.0006   0.0050
   2 N_b :1s     0.0007   0.6503   0.0118  -0.0656  -0.0000  -0.0057  -0.0753
   3 N_b :1s     0.0000  -0.0001  -0.0038  -0.0077  -0.0000   0.0024   0.0145
   4 N_b :1s    -0.0013  -0.0003  -0.0691  -0.1415  -0.0000  -0.0983   0.2708
   5 N_b :1s     0.0074   0.0348   0.7627   1.5432   0.0000   0.5390  -2.9819
   6 N_b :1s     0.0095   0.1430   5.0805  10.5478   0.0000   2.2778 -20.8111
   7 N_b :1s     0.0037   0.0577  12.3114  26.3007  -0.0000  -0.8447 -52.6918
   8 N_b :1s     0.0010   0.0137  21.3150  42.0352  -0.0000  -5.7439 -53.1077
   9 N_b :2pz   -0.0070   0.3268   0.0042  -0.0263   0.0000  -0.0036  -0.0252
  10 N_b :2pz    0.0022  -0.0021   0.0145   0.0292   0.0000   0.0145  -0.0559
  11 N_b :2pz    0.0002  -0.0136  -0.1402  -0.2836  -0.0000  -0.0764   0.5430
  12 N_b :2pz   -0.0027  -0.0439  -1.1070  -2.2915  -0.0000  -0.3171   4.4246
  13 N_b :2pz   -0.0016  -0.0528  -2.3587  -5.0049  -0.0000   0.2513   9.8129
  14 N_b :2pz   -0.0006  -0.0075  -3.4501  -7.4574   0.0000   1.1104  14.1747
  15 N_b :2pz   -0.0000  -0.0006  -2.2209  -3.0140   0.0000   0.1798   2.9384
  20 N_b :3d0    0.0011  -0.0033   0.0854   0.1769  -0.0000   0.0362  -0.3316
  22 N_b :3d0    0.0012   0.0032   0.2797   0.5811   0.0000   0.1100  -1.1147
  23 N_b :3d2+  -0.0000  -0.0000  -0.0000   0.0000   0.3272   0.0000   0.0000
  24 N_b :3d0    0.0005   0.0079   0.3398   0.6748   0.0000   1.3428  -1.3944
  25 N_b :3d2+  -0.0000  -0.0000  -0.0000   0.0000   2.5400   0.0000   0.0000
  26 N_b :3d0    0.0001   0.0010   0.2879   0.5166   0.0000   3.0316  -1.1933
  27 N_b :3d2+  -0.0000  -0.0000  -0.0000   0.0000   4.2325  -0.0000   0.0000
  30 N_b :4f0   -0.0003  -0.0009  -0.0125  -0.0253   0.0000  -0.0099   0.0484
  32 N_b :4f0    0.0000  -0.0003  -0.0309  -0.0648   0.0000   0.0202   0.1210
  33 N_b :4f2+   0.0000   0.0000   0.0000  -0.0000  -0.0459  -0.0000  -0.0000
  34 N_b :4f0   -0.0001  -0.0011   0.0147   0.0363  -0.0000  -0.1507  -0.0665
  35 N_b :4f2+   0.0000   0.0000   0.0000  -0.0000  -0.3146  -0.0000  -0.0000
  36 N_b :4f0   -0.0001  -0.0014  -0.0147  -0.0010  -0.0000  -0.9541   0.0487
  37 N_b :4f2+   0.0000   0.0000   0.0000  -0.0000  -1.0981  -0.0000  -0.0000
  41 N_b :5g0   -0.0000   0.0005   0.0045   0.0091  -0.0000   0.0042  -0.0176
  44 N_b :5g0   -0.0002  -0.0005  -0.0018  -0.0025  -0.0000  -0.0380   0.0073
  47 N_b :5g0    0.0000   0.0003  -0.0152  -0.0354   0.0000   0.0922   0.0640
  48 N_b :5g2+  -0.0000  -0.0000  -0.0000   0.0000   0.1141   0.0000   0.0000
  57 N_b :6h2+   0.0000   0.0000   0.0000  -0.0000  -0.0147  -0.0000  -0.0000

    Orbital         8        9       10       11       12
   1 N_b :1s    -0.0142   0.0000  -0.0033  -0.0239  -0.0000
   2 N_b :1s    -0.2157  -0.0000  -0.0071  -0.1860  -0.0000
   3 N_b :1s    -0.0241  -0.0000  -0.0090  -0.0674  -0.0000
   4 N_b :1s    -0.5042  -0.0000  -0.1910   0.4212  -0.0000
   5 N_b :1s     5.2383   0.0000   2.7949   7.3315   0.0000
   6 N_b :1s    39.1905   0.0000   9.3833   0.8901   0.0000
   7 N_b :1s    91.8149  -0.0000  -1.3777 -36.3149   0.0000
   8 N_b :1s    51.2083  -0.0000  -0.8801 -11.0212   0.0000
   9 N_b :2pz   -0.0746  -0.0000  -0.0439   0.0739   0.0000
  10 N_b :2pz    0.0986   0.0000   0.0464   0.0373   0.0000
  11 N_b :2pz   -0.9566   0.0000  -0.4083  -0.9232  -0.0000
  12 N_b :2pz   -8.2684  -0.0000  -1.6562  -0.3844  -0.0000
  13 N_b :2pz  -19.1615   0.0000  -0.3016   7.4244  -0.0000
  14 N_b :2pz  -19.7579   0.0000   0.0919   5.4540  -0.0000
  15 N_b :2pz   -2.4224   0.0000  -0.0542   0.4244  -0.0000
  18 N_b :3d0   -0.0094   0.0000   0.0045   0.0136  -0.0000
  19 N_b :3d2+  -0.0000  -0.0011   0.0000  -0.0000   0.0196
  20 N_b :3d0    0.6081  -0.0000   0.1763   0.2688   0.0000
  21 N_b :3d2+   0.0000   0.0214  -0.0000   0.0000  -0.2172
  22 N_b :3d0    2.0593   0.0000   0.7935   2.4002   0.0000
  23 N_b :3d2+   0.0000   1.1548  -0.0000   0.0000  -4.0674
  24 N_b :3d0    2.3426   0.0000   4.5247   9.6360  -0.0000
  25 N_b :3d2+   0.0000   7.4195  -0.0000   0.0000 -15.9460
  26 N_b :3d0    1.2870   0.0000   2.7500   1.4620  -0.0000
  27 N_b :3d2+   0.0000   3.7286  -0.0000   0.0000  -2.6589
  30 N_b :4f0   -0.0867   0.0000  -0.0313  -0.0036   0.0000
  31 N_b :4f2+  -0.0000   0.0023   0.0000  -0.0000  -0.0122
  32 N_b :4f0   -0.2168   0.0000  -0.0858  -0.6615   0.0000
  33 N_b :4f2+  -0.0000  -0.2149   0.0000  -0.0000   0.9527
  34 N_b :4f0    0.1982  -0.0000  -0.7485  -3.1712   0.0000
  35 N_b :4f2+  -0.0000  -1.0523   0.0000  -0.0000   3.3237
  36 N_b :4f0    0.1162  -0.0000  -2.8086  -3.8562   0.0000
  37 N_b :4f2+  -0.0000  -3.0564   0.0000  -0.0000   4.2458
  41 N_b :5g0    0.0303  -0.0000   0.0229   0.0648  -0.0000
  42 N_b :5g2+   0.0000   0.0307  -0.0000   0.0000  -0.0875
  44 N_b :5g0   -0.0140  -0.0000  -0.0309   0.3311  -0.0000
  45 N_b :5g2+   0.0000   0.0605  -0.0000   0.0000  -0.4213
  47 N_b :5g0   -0.1514   0.0000   0.3109   0.8887  -0.0000
  48 N_b :5g2+   0.0000   0.3269  -0.0000   0.0000  -0.7312
  53 N_b :6h0    0.0032  -0.0000   0.0067  -0.0440   0.0000
  54 N_b :6h2+  -0.0000  -0.0085   0.0000  -0.0000   0.0566
  56 N_b :6h0    0.0195   0.0000  -0.0268  -0.1306   0.0000
  57 N_b :6h2+  -0.0000  -0.0443   0.0000  -0.0000   0.1234

 Molecular orbitals for symmetry species 6  (B2g)
 ------------------------------------------------

    Orbital         1        2        3        4        5        6        7
   1 N_b :2px    0.0237   0.2016   0.4863   0.3269  -0.0000   0.1697   0.3577
   2 N_b :2px   -0.0026   0.0057  -0.0141   0.0352   0.0000  -0.0331  -0.0567
   3 N_b :2px    0.0051  -0.0217   0.0488  -0.1930  -0.0000   0.2649   0.2608
   4 N_b :2px    0.1100  -0.3904   0.9853  -3.5702   0.0000   5.2318   5.0618
   5 N_b :2px    1.7835  -4.4704   6.9023 -17.3871  -0.0000   8.8993  33.4628
   6 N_b :2px   12.8773 -31.9701  40.6937 -68.3899   0.0000  -3.3313  67.3942
   7 N_b :2px    6.4949  -5.2291   3.7199  -3.2952   0.0000  -1.4710   2.5473
   9 N_b :3d1+  -0.0002   0.0022   0.0078  -0.0146  -0.0000   0.0374   0.0209
  10 N_b :3d1+  -0.0049   0.0358  -0.0606   0.3199  -0.0000  -0.4664  -0.4029
  11 N_b :3d1+  -0.1063   0.3636  -0.6834   2.5312  -0.0000  -3.1831  -3.7104
  12 N_b :3d1+  -0.7219   1.8726  -2.7035   7.2929  -0.0000  -3.9302 -13.2569
  13 N_b :3d1+  -2.8264   7.0681  -8.3258  12.8877  -0.0000   1.2498 -12.1975
  16 N_b :4f1+   0.0017  -0.0068   0.0109  -0.0463   0.0000   0.0538   0.0624
  18 N_b :4f1+   0.0122  -0.0483   0.1014  -0.4022   0.0000   0.5480   0.5556
  19 N_b :4f3+  -0.0000  -0.0000  -0.0000  -0.0000  -0.1228  -0.0000  -0.0000
  20 N_b :4f1+   0.0343  -0.1140   0.2224  -0.8224  -0.0000   1.0915   1.1926
  21 N_b :4f3+  -0.0000  -0.0000  -0.0000  -0.0000  -0.5791  -0.0000  -0.0000
  22 N_b :4f1+   0.1787  -0.4284   0.5112  -0.9302   0.0000  -1.0844   2.4099
  23 N_b :4f3+   0.0000   0.0000   0.0000   0.0000   2.1306   0.0000   0.0000
  26 N_b :5g1+  -0.0034   0.0099  -0.0181   0.0583  -0.0000  -0.0591  -0.0886
  27 N_b :5g3+   0.0000   0.0000   0.0000   0.0000  -0.0213   0.0000   0.0000
  28 N_b :5g1+   0.0051  -0.0079  -0.0006   0.0441  -0.0000  -0.1462  -0.0246
  29 N_b :5g3+   0.0000   0.0000   0.0000   0.0000   0.2099   0.0000   0.0000
  30 N_b :5g1+  -0.0065   0.0151  -0.0219   0.0539   0.0000  -0.0157  -0.0903
  31 N_b :5g3+  -0.0000  -0.0000  -0.0000  -0.0000   0.0575  -0.0000  -0.0000
  35 N_b :6h1+   0.0003  -0.0017   0.0044  -0.0175   0.0000   0.0258   0.0239
  36 N_b :6h3+  -0.0000  -0.0000  -0.0000  -0.0000  -0.0120  -0.0000  -0.0000
  38 N_b :6h1+  -0.0039   0.0096  -0.0133   0.0318   0.0000  -0.0048  -0.0646
  39 N_b :6h3+  -0.0000  -0.0000  -0.0000  -0.0000  -0.0849  -0.0000  -0.0000

    Orbital         8        9       10
   1 N_b :2px    0.3911   0.1274  -0.0000
   2 N_b :2px    0.1204  -0.0381   0.0000
   3 N_b :2px   -0.6032   0.4652   0.0000
   4 N_b :2px  -12.1060  11.4571  -0.0000
   5 N_b :2px  -55.1103   1.7621   0.0000
   6 N_b :2px  -50.2345 -12.1550   0.0000
   7 N_b :2px   -1.3202  -1.0230  -0.0000
   8 N_b :3d1+   0.0046  -0.0113   0.0000
   9 N_b :3d1+  -0.0555   0.0838   0.0000
  10 N_b :3d1+   1.0148  -0.9462  -0.0000
  11 N_b :3d1+   8.9183  -6.5651   0.0000
  12 N_b :3d1+  19.5599  -0.5449  -0.0000
  13 N_b :3d1+   8.6801   2.4773  -0.0000
  14 N_b :4f1+   0.0138  -0.0102  -0.0000
  16 N_b :4f1+  -0.1484   0.0953  -0.0000
  17 N_b :4f3+   0.0000   0.0000   0.0214
  18 N_b :4f1+  -1.3737   1.1272   0.0000
  19 N_b :4f3+  -0.0000  -0.0000  -0.3955
  20 N_b :4f1+  -2.7619   2.4095  -0.0000
  21 N_b :4f3+  -0.0000  -0.0000  -2.3862
  22 N_b :4f1+  -2.2436  -1.0747   0.0000
  23 N_b :4f3+   0.0000   0.0000   1.1469
  25 N_b :5g3+  -0.0000  -0.0000   0.0103
  26 N_b :5g1+   0.1962  -0.0905   0.0000
  27 N_b :5g3+   0.0000   0.0000  -0.0725
  28 N_b :5g1+   0.1332  -0.3896  -0.0000
  29 N_b :5g3+   0.0000   0.0000   0.7095
  30 N_b :5g1+   0.0610   0.1624   0.0000
  31 N_b :5g3+  -0.0000  -0.0000   0.1769
  32 N_b :6h1+  -0.0144   0.0066  -0.0000
  35 N_b :6h1+  -0.0634   0.0547   0.0000
  36 N_b :6h3+  -0.0000  -0.0000  -0.0346
  38 N_b :6h1+   0.1504   0.0075   0.0000
  39 N_b :6h3+  -0.0000  -0.0000  -0.2993

 Molecular orbitals for symmetry species 7  (B3g)
 ------------------------------------------------

    Orbital         1        2        3        4        5        6        7
   1 N_b :2py    0.0237   0.2016   0.4863   0.3269   0.0000   0.1697   0.3577
   2 N_b :2py   -0.0026   0.0057  -0.0141   0.0352  -0.0000  -0.0331  -0.0567
   3 N_b :2py    0.0051  -0.0217   0.0488  -0.1930  -0.0000   0.2649   0.2608
   4 N_b :2py    0.1100  -0.3904   0.9853  -3.5702  -0.0000   5.2318   5.0618
   5 N_b :2py    1.7835  -4.4704   6.9023 -17.3871  -0.0000   8.8993  33.4628
   6 N_b :2py   12.8773 -31.9701  40.6937 -68.3899   0.0000  -3.3313  67.3942
   7 N_b :2py    6.4949  -5.2291   3.7199  -3.2952   0.0000  -1.4710   2.5473
   9 N_b :3d1-  -0.0002   0.0022   0.0078  -0.0146  -0.0000   0.0374   0.0209
  10 N_b :3d1-  -0.0049   0.0358  -0.0606   0.3199   0.0000  -0.4664  -0.4029
  11 N_b :3d1-  -0.1063   0.3636  -0.6834   2.5312  -0.0000  -3.1831  -3.7104
  12 N_b :3d1-  -0.7219   1.8726  -2.7035   7.2929  -0.0000  -3.9302 -13.2569
  13 N_b :3d1-  -2.8264   7.0681  -8.3258  12.8877  -0.0000   1.2498 -12.1975
  17 N_b :4f1-   0.0017  -0.0068   0.0109  -0.0463   0.0000   0.0538   0.0624
  18 N_b :4f3-   0.0000   0.0000   0.0000   0.0000  -0.1228   0.0000   0.0000
  19 N_b :4f1-   0.0122  -0.0483   0.1014  -0.4022  -0.0000   0.5480   0.5556
  20 N_b :4f3-   0.0000   0.0000   0.0000   0.0000  -0.5791   0.0000   0.0000
  21 N_b :4f1-   0.0343  -0.1140   0.2224  -0.8224   0.0000   1.0915   1.1926
  22 N_b :4f3-  -0.0000  -0.0000  -0.0000  -0.0000   2.1306  -0.0000  -0.0000
  23 N_b :4f1-   0.1787  -0.4284   0.5112  -0.9302  -0.0000  -1.0844   2.4099
  26 N_b :5g3-  -0.0000  -0.0000  -0.0000  -0.0000  -0.0213  -0.0000  -0.0000
  27 N_b :5g1-  -0.0034   0.0099  -0.0181   0.0583  -0.0000  -0.0591  -0.0886
  28 N_b :5g3-  -0.0000  -0.0000  -0.0000  -0.0000   0.2099  -0.0000  -0.0000
  29 N_b :5g1-   0.0051  -0.0079  -0.0006   0.0441   0.0000  -0.1462  -0.0246
  30 N_b :5g3-  -0.0000  -0.0000  -0.0000  -0.0000   0.0575  -0.0000  -0.0000
  31 N_b :5g1-  -0.0065   0.0151  -0.0219   0.0539  -0.0000  -0.0157  -0.0903
  36 N_b :6h3-   0.0000   0.0000   0.0000   0.0000  -0.0120   0.0000   0.0000
  37 N_b :6h1-   0.0003  -0.0017   0.0044  -0.0175  -0.0000   0.0258   0.0239
  39 N_b :6h3-   0.0000   0.0000   0.0000   0.0000  -0.0849   0.0000   0.0000
  40 N_b :6h1-  -0.0039   0.0096  -0.0133   0.0318  -0.0000  -0.0048  -0.0646

    Orbital         8        9       10
   1 N_b :2py    0.3911   0.1274   0.0000
   2 N_b :2py    0.1204  -0.0381  -0.0000
   3 N_b :2py   -0.6032   0.4652  -0.0000
   4 N_b :2py  -12.1060  11.4571  -0.0000
   5 N_b :2py  -55.1103   1.7621  -0.0000
   6 N_b :2py  -50.2345 -12.1550   0.0000
   7 N_b :2py   -1.3202  -1.0230   0.0000
   8 N_b :3d1-   0.0046  -0.0113  -0.0000
   9 N_b :3d1-  -0.0555   0.0838  -0.0000
  10 N_b :3d1-   1.0148  -0.9462   0.0000
  11 N_b :3d1-   8.9183  -6.5651  -0.0000
  12 N_b :3d1-  19.5599  -0.5449  -0.0000
  13 N_b :3d1-   8.6801   2.4773  -0.0000
  15 N_b :4f1-   0.0138  -0.0102   0.0000
  16 N_b :4f3-  -0.0000  -0.0000   0.0214
  17 N_b :4f1-  -0.1484   0.0953   0.0000
  18 N_b :4f3-   0.0000   0.0000  -0.3955
  19 N_b :4f1-  -1.3737   1.1272  -0.0000
  20 N_b :4f3-   0.0000   0.0000  -2.3862
  21 N_b :4f1-  -2.7619   2.4095   0.0000
  22 N_b :4f3-  -0.0000  -0.0000   1.1469
  23 N_b :4f1-  -2.2436  -1.0747  -0.0000
  24 N_b :5g3-   0.0000   0.0000   0.0103
  26 N_b :5g3-  -0.0000  -0.0000  -0.0725
  27 N_b :5g1-   0.1962  -0.0905  -0.0000
  28 N_b :5g3-  -0.0000  -0.0000   0.7095
  29 N_b :5g1-   0.1332  -0.3896   0.0000
  30 N_b :5g3-  -0.0000  -0.0000   0.1769
  31 N_b :5g1-   0.0610   0.1624  -0.0000
  34 N_b :6h1-  -0.0144   0.0066   0.0000
  36 N_b :6h3-   0.0000   0.0000  -0.0346
  37 N_b :6h1-  -0.0634   0.0547  -0.0000
  39 N_b :6h3-   0.0000   0.0000  -0.2993
  40 N_b :6h1-   0.1504   0.0075  -0.0000

 Molecular orbitals for symmetry species 8  (Au )
 ------------------------------------------------

    Orbital         1        2        3        4        5        6        7
   1 N_b :3d2-  -0.0003  -0.0004  -0.0037  -0.0081   0.0000   0.0078  -0.0149
   2 N_b :3d2-   0.0014  -0.0011   0.0196   0.0644   0.0000  -0.0224   0.0457
   3 N_b :3d2-  -0.0010   0.0214  -0.2172  -0.4575   0.0000   0.1851  -0.7563
   4 N_b :3d2-   0.3272   1.1548  -4.0674  -6.8128   0.0000  -1.4729 -12.6319
   5 N_b :3d2-   2.5400   7.4195 -15.9460 -12.1105   0.0000  -8.3174 -12.8715
   6 N_b :3d2-   4.2325   3.7286  -2.6589  -0.5411   0.0000  -1.5371  -0.8685
   8 N_b :4f2-   0.0007   0.0023  -0.0122  -0.0205   0.0000   0.0034  -0.0380
   9 N_b :4f2-  -0.0459  -0.2149   0.9527   1.8528   0.0000  -0.0326   3.0400
  10 N_b :4f2-  -0.3146  -1.0523   3.3237   5.3625   0.0000   1.4952   7.1792
  11 N_b :4f2-  -1.0981  -3.0564   4.2458   2.2265   0.0000   2.2518   2.4192
  13 N_b :5g2-  -0.0009  -0.0027   0.0063   0.0064   0.0000   0.0087   0.0179
  14 N_b :5g4-   0.0000   0.0000   0.0000   0.0000   0.0595   0.0000   0.0000
  15 N_b :5g2-   0.0097   0.0307  -0.0875  -0.1192   0.0000  -0.0830  -0.2639
  16 N_b :5g4-   0.0000   0.0000   0.0000   0.0000  -0.2276   0.0000   0.0000
  17 N_b :5g2-   0.0039   0.0605  -0.4213  -0.9745   0.0000   0.2989  -1.3774
  18 N_b :5g4-   0.0000   0.0000   0.0000   0.0000   1.6276   0.0000   0.0000
  19 N_b :5g2-   0.1141   0.3269  -0.7312  -0.6906   0.0000  -1.3507  -1.8103
  20 N_b :6h4-   0.0000   0.0000   0.0000   0.0000  -0.0135   0.0000   0.0000
  21 N_b :6h2-  -0.0012  -0.0026   0.0024  -0.0038   0.0000   0.0129   0.0027
  22 N_b :6h4-   0.0000   0.0000   0.0000   0.0000   0.0700   0.0000   0.0000
  23 N_b :6h2-  -0.0006  -0.0085   0.0566   0.1234   0.0000  -0.0242   0.1944
  24 N_b :6h4-   0.0000   0.0000   0.0000   0.0000  -0.2800   0.0000   0.0000
  25 N_b :6h2-  -0.0147  -0.0443   0.1234   0.1702   0.0000   0.1038   0.3339

    Orbital         8        9       10
   1 N_b :3d2-   0.0159   0.0000  -0.0076
   2 N_b :3d2-  -0.1586   0.0000   0.0918
   3 N_b :3d2-   0.9813   0.0000  -0.2995
   4 N_b :3d2-   7.0866   0.0000  -7.8561
   5 N_b :3d2-   1.1043   0.0000  -5.8313
   6 N_b :3d2-  -0.4612   0.0000  -0.4547
   7 N_b :4f2-  -0.0005   0.0000   0.0252
   8 N_b :4f2-   0.0076   0.0000  -0.1753
   9 N_b :4f2-  -3.3715   0.0000   1.5881
  10 N_b :4f2-  -2.7410   0.0000   3.7583
  11 N_b :4f2-   0.1723   0.0000   1.1146
  15 N_b :5g2-   0.1435   0.0000   0.0810
  16 N_b :5g4-   0.0000   0.1143   0.0000
  17 N_b :5g2-   2.2761   0.0000  -0.8487
  18 N_b :5g4-   0.0000   1.4376   0.0000
  19 N_b :5g2-  -0.1559   0.0000  -1.4802
  20 N_b :6h4-   0.0000  -0.0445   0.0000
  21 N_b :6h2-   0.0322   0.0000   0.0358
  22 N_b :6h4-   0.0000   0.2533   0.0000
  23 N_b :6h2-  -0.3276   0.0000  -0.2119
  24 N_b :6h4-   0.0000  -1.6227   0.0000
  25 N_b :6h2-   0.2053   0.0000   1.6443

  Total CPU  time used in SIRIUS :  1 minute  36 seconds
  Total wall time used in SIRIUS :  1 minute  36 seconds

 
[...]
 (dimension of paired reduced space:   70)
 RSP solution vector no.    1; norm of residual   2.32D-04
 RSP solution vector no.    2; norm of residual   2.33D-04
 RSP solution vector no.    3; norm of residual   2.33D-04
 RSP solution vector no.    4; norm of residual   2.33D-04
 RSP solution vector no.    5; norm of residual   2.34D-04
 RSP solution vector no.    6; norm of residual   2.35D-04
 RSP solution vector no.    7; norm of residual   2.36D-04
 RSP solution vector no.    8; norm of residual   2.37D-04
 RSP solution vector no.    9; norm of residual   2.38D-04

 *** RSPCTL MICROITERATIONS CONVERGED


           Final output of second order properties from linear response
           ------------------------------------------------------------


@ Spin symmetry of operators: singlet

 Note that minus the linear response function: - << A; B >>(omega) is printed.
 The results are of quadratic accuracy using Sellers formula.

@ FREQUENCY INDEPENDENT SECOND ORDER PROPERTIES

@ -<< XDIPLEN  ; XDIPLEN  >> =  9.832573534286E+00

@ FREQUENCY DEPENDENT SECOND ORDER PROPERTIES WITH FREQUENCY :

@    a.u.:  1.8250188D-02
@    cm-1:  4.0054531D+03
@    eV  :  4.9661286D-01
@  kJ/mol:  4.7915860D+01
@    nm  :  2.4965964D+03

@ -<< XDIPLEN  ; XDIPLEN  >> =  9.839417375041E+00

@ FREQUENCY DEPENDENT SECOND ORDER PROPERTIES WITH FREQUENCY :

@    a.u.:  3.6500375D-02
@    cm-1:  8.0109063D+03
@    eV  :  9.9322573D-01
@  kJ/mol:  9.5831720D+01
@    nm  :  1.2482982D+03

@ -<< XDIPLEN  ; XDIPLEN  >> =  9.860025029218E+00

@ FREQUENCY DEPENDENT SECOND ORDER PROPERTIES WITH FREQUENCY :

@    a.u.:  5.4750563D-02
@    cm-1:  1.2016359D+04
@    eV  :  1.4898386D+00
@  kJ/mol:  1.4374758D+02
@    nm  :  8.3219881D+02

@ -<< XDIPLEN  ; XDIPLEN  >> =  9.894627340899E+00

@ FREQUENCY DEPENDENT SECOND ORDER PROPERTIES WITH FREQUENCY :

@    a.u.:  7.3000750D-02
@    cm-1:  1.6021813D+04
@    eV  :  1.9864515D+00
@  kJ/mol:  1.9166344D+02
@    nm  :  6.2414911D+02

@ -<< XDIPLEN  ; XDIPLEN  >> =  9.943617372929E+00

@ FREQUENCY DEPENDENT SECOND ORDER PROPERTIES WITH FREQUENCY :

@    a.u.:  9.1250938D-02
@    cm-1:  2.0027266D+04
@    eV  :  2.4830643D+00
@  kJ/mol:  2.3957930D+02
@    nm  :  4.9931929D+02

@ -<< XDIPLEN  ; XDIPLEN  >> =  1.000756347485E+01

@ FREQUENCY DEPENDENT SECOND ORDER PROPERTIES WITH FREQUENCY :

@    a.u.:  1.0950113D-01
@    cm-1:  2.4032719D+04
@    eV  :  2.9796772D+00
@  kJ/mol:  2.8749516D+02
@    nm  :  4.1609940D+02

@ -<< XDIPLEN  ; XDIPLEN  >> =  1.008722881524E+01

@ FREQUENCY DEPENDENT SECOND ORDER PROPERTIES WITH FREQUENCY :

@    a.u.:  1.2775131D-01
@    cm-1:  2.8038172D+04
@    eV  :  3.4762900D+00
@  kJ/mol:  3.3541102D+02
@    nm  :  3.5665663D+02

@ -<< XDIPLEN  ; XDIPLEN  >> =  1.018359879044E+01

@ FREQUENCY DEPENDENT SECOND ORDER PROPERTIES WITH FREQUENCY :

@    a.u.:  1.4600150D-01
@    cm-1:  3.2043625D+04
@    eV  :  3.9729029D+00
@  kJ/mol:  3.8332688D+02
@    nm  :  3.1207455D+02

@ -<< XDIPLEN  ; XDIPLEN  >> =  1.029791841137E+01


 Time used in linear response calculation is     68.73 CPU seconds for symmetry 2
 ----------------------------------------------------------------
 ----- Linear response calculation
 ----- Symmetry of excitation/property operator(s)    3  ( B2u)
 ----------------------------------------------------------------

 Number of excitations of this symmetry            0
 Number of response properties of this symmetry    1
 Number of C6/C8 properties of this symmetry       0


 Perturbation symmetry.     KSYMOP:           3
 Perturbation spin symmetry.TRPLET:           F
 Orbital variables.         KZWOPT:         277
 Configuration variables.   KZCONF:           0
 Total number of variables. KZVAR :         277


 RSPLR -- linear response calculation for symmetry 3  ( B2u)
 RSPLR -- operator label : YDIPLEN 
 RSPLR -- operator spin  :   0
 RSPLR -- frequencies    :     0.000000  0.018250  0.036500  0.054751  0.073001
                               0.091251  0.109501  0.127751  0.146002



 ---  SOLVING SETS OF LINEAR EQUATIONS FOR LINEAR RESPONSE PROPERTIES ---

 Operator symmetry = 3  ( B2u); triplet =   F

RSPORT:    1 out of    9 new trial vectors linear dependent

 ** RSPCTL MICROITERATION NUMBER    1

       No.  Residual tot.,    conf., and orb.    Bnorm      Frequency 
      ----------------------------------------------------------------
         1    8.25716D-01  0.00D+00  8.26D-01  2.34D+00    0.00000D+00
         2    8.26217D-01  0.00D+00  8.26D-01  2.34D+00    1.82502D-02
         3    8.27726D-01  0.00D+00  8.28D-01  2.35D+00    3.65004D-02
         4    8.30261D-01  0.00D+00  8.30D-01  2.37D+00    5.47506D-02
         5    8.33852D-01  0.00D+00  8.34D-01  2.39D+00    7.30008D-02
         6    8.38542D-01  0.00D+00  8.39D-01  2.42D+00    9.12509D-02
         7    8.44390D-01  0.00D+00  8.44D-01  2.46D+00    1.09501D-01
         8    8.51471D-01  0.00D+00  8.51D-01  2.50D+00    1.27751D-01
         9    8.59881D-01  0.00D+00  8.60D-01  2.56D+00    1.46002D-01

 ** RSPCTL MICROITERATION NUMBER    2

       No.  Residual tot.,    conf., and orb.    Bnorm      Frequency 
      ----------------------------------------------------------------
         1    6.79897D-02  0.00D+00  6.80D-02  2.40D+00    0.00000D+00
         2    6.80473D-02  0.00D+00  6.80D-02  2.40D+00    1.82502D-02
         3    6.82212D-02  0.00D+00  6.82D-02  2.41D+00    3.65004D-02
         4    6.85143D-02  0.00D+00  6.85D-02  2.43D+00    5.47506D-02
         5    6.89317D-02  0.00D+00  6.89D-02  2.45D+00    7.30008D-02
         6    6.94807D-02  0.00D+00  6.95D-02  2.49D+00    9.12509D-02
         7    7.01717D-02  0.00D+00  7.02D-02  2.52D+00    1.09501D-01
         8    7.10182D-02  0.00D+00  7.10D-02  2.57D+00    1.27751D-01
         9    7.20381D-02  0.00D+00  7.20D-02  2.63D+00    1.46002D-01

 ** RSPCTL MICROITERATION NUMBER    3

       No.  Residual tot.,    conf., and orb.    Bnorm      Frequency 
      ----------------------------------------------------------------
         1    8.84913D-03  0.00D+00  8.85D-03  2.40D+00    0.00000D+00
         2    8.85601D-03  0.00D+00  8.86D-03  2.40D+00    1.82502D-02
         3    8.87665D-03  0.00D+00  8.88D-03  2.41D+00    3.65004D-02
         4    8.91114D-03  0.00D+00  8.91D-03  2.43D+00    5.47506D-02
         5    8.95960D-03  0.00D+00  8.96D-03  2.45D+00    7.30008D-02
         6    9.02222D-03  0.00D+00  9.02D-03  2.49D+00    9.12509D-02
         7    9.09927D-03  0.00D+00  9.10D-03  2.53D+00    1.09501D-01
         8    9.19109D-03  0.00D+00  9.19D-03  2.57D+00    1.27751D-01
         9    9.29816D-03  0.00D+00  9.30D-03  2.63D+00    1.46002D-01

 ** RSPCTL MICROITERATION NUMBER    4

       No.  Residual tot.,    conf., and orb.    Bnorm      Frequency 
      ----------------------------------------------------------------
         1    5.26053D-04  0.00D+00  5.26D-04  2.40D+00    0.00000D+00
         2    5.27109D-04  0.00D+00  5.27D-04  2.40D+00    1.82502D-02
         3    5.30289D-04  0.00D+00  5.30D-04  2.41D+00    3.65004D-02
         4    5.35625D-04  0.00D+00  5.36D-04  2.43D+00    5.47506D-02
         5    5.43170D-04  0.00D+00  5.43D-04  2.45D+00    7.30008D-02
         6    5.53006D-04  0.00D+00  5.53D-04  2.49D+00    9.12509D-02
         7    5.65244D-04  0.00D+00  5.65D-04  2.53D+00    1.09501D-01
         8    5.80034D-04  0.00D+00  5.80D-04  2.57D+00    1.27751D-01
         9    5.97578D-04  0.00D+00  5.98D-04  2.63D+00    1.46002D-01

 *** THE REQUESTED    9 SOLUTION VECTORS CONVERGED

 Convergence of RSP solution vectors, threshold = 1.00D-03
 ---------------------------------------------------------------
 (dimension of paired reduced space:   70)
 RSP solution vector no.    1; norm of residual   2.19D-04
 RSP solution vector no.    2; norm of residual   2.19D-04
 RSP solution vector no.    3; norm of residual   2.20D-04
 RSP solution vector no.    4; norm of residual   2.20D-04
 RSP solution vector no.    5; norm of residual   2.21D-04
 RSP solution vector no.    6; norm of residual   2.22D-04
 RSP solution vector no.    7; norm of residual   2.24D-04
 RSP solution vector no.    8; norm of residual   2.25D-04
 RSP solution vector no.    9; norm of residual   2.27D-04

 *** RSPCTL MICROITERATIONS CONVERGED


           Final output of second order properties from linear response
           ------------------------------------------------------------


@ Spin symmetry of operators: singlet

 Note that minus the linear response function: - << A; B >>(omega) is printed.
 The results are of quadratic accuracy using Sellers formula.

@ FREQUENCY INDEPENDENT SECOND ORDER PROPERTIES

@ -<< YDIPLEN  ; YDIPLEN  >> =  9.832573537258E+00

@ FREQUENCY DEPENDENT SECOND ORDER PROPERTIES WITH FREQUENCY :

@    a.u.:  1.8250188D-02
@    cm-1:  4.0054531D+03
@    eV  :  4.9661286D-01
@  kJ/mol:  4.7915860D+01
@    nm  :  2.4965964D+03

@ -<< YDIPLEN  ; YDIPLEN  >> =  9.839417377989E+00

@ FREQUENCY DEPENDENT SECOND ORDER PROPERTIES WITH FREQUENCY :

@    a.u.:  3.6500375D-02
@    cm-1:  8.0109063D+03
@    eV  :  9.9322573D-01
@  kJ/mol:  9.5831720D+01
@    nm  :  1.2482982D+03

@ -<< YDIPLEN  ; YDIPLEN  >> =  9.860025032091E+00

@ FREQUENCY DEPENDENT SECOND ORDER PROPERTIES WITH FREQUENCY :

@    a.u.:  5.4750563D-02
@    cm-1:  1.2016359D+04
@    eV  :  1.4898386D+00
@  kJ/mol:  1.4374758D+02
@    nm  :  8.3219881D+02

@ -<< YDIPLEN  ; YDIPLEN  >> =  9.894627343641E+00

@ FREQUENCY DEPENDENT SECOND ORDER PROPERTIES WITH FREQUENCY :

@    a.u.:  7.3000750D-02
@    cm-1:  1.6021813D+04
@    eV  :  1.9864515D+00
@  kJ/mol:  1.9166344D+02
@    nm  :  6.2414911D+02

@ -<< YDIPLEN  ; YDIPLEN  >> =  9.943617375476E+00

@ FREQUENCY DEPENDENT SECOND ORDER PROPERTIES WITH FREQUENCY :

@    a.u.:  9.1250938D-02
@    cm-1:  2.0027266D+04
@    eV  :  2.4830643D+00
@  kJ/mol:  2.3957930D+02
@    nm  :  4.9931929D+02

@ -<< YDIPLEN  ; YDIPLEN  >> =  1.000756347713E+01

@ FREQUENCY DEPENDENT SECOND ORDER PROPERTIES WITH FREQUENCY :

@    a.u.:  1.0950113D-01
@    cm-1:  2.4032719D+04
@    eV  :  2.9796772D+00
@  kJ/mol:  2.8749516D+02
@    nm  :  4.1609940D+02

@ -<< YDIPLEN  ; YDIPLEN  >> =  1.008722881715E+01

@ FREQUENCY DEPENDENT SECOND ORDER PROPERTIES WITH FREQUENCY :

@    a.u.:  1.2775131D-01
@    cm-1:  2.8038172D+04
@    eV  :  3.4762900D+00
@  kJ/mol:  3.3541102D+02
@    nm  :  3.5665663D+02

@ -<< YDIPLEN  ; YDIPLEN  >> =  1.018359879186E+01

@ FREQUENCY DEPENDENT SECOND ORDER PROPERTIES WITH FREQUENCY :

@    a.u.:  1.4600150D-01
@    cm-1:  3.2043625D+04
@    eV  :  3.9729029D+00
@  kJ/mol:  3.8332688D+02
@    nm  :  3.1207455D+02

@ -<< YDIPLEN  ; YDIPLEN  >> =  1.029791841216E+01


 Time used in linear response calculation is     68.94 CPU seconds for symmetry 3
 ----------------------------------------------------------------
 ----- Linear response calculation
 ----- Symmetry of excitation/property operator(s)    5  ( B1u)
 ----------------------------------------------------------------

 Number of excitations of this symmetry            0
 Number of response properties of this symmetry    1
 Number of C6/C8 properties of this symmetry       0


 Perturbation symmetry.     KSYMOP:           5
 Perturbation spin symmetry.TRPLET:           F
 Orbital variables.         KZWOPT:         358
 Configuration variables.   KZCONF:           0
 Total number of variables. KZVAR :         358


 RSPLR -- linear response calculation for symmetry 5  ( B1u)
 RSPLR -- operator label : ZDIPLEN 
 RSPLR -- operator spin  :   0
 RSPLR -- frequencies    :     0.000000  0.018250  0.036500  0.054751  0.073001
                               0.091251  0.109501  0.127751  0.146002



 ---  SOLVING SETS OF LINEAR EQUATIONS FOR LINEAR RESPONSE PROPERTIES ---

 Operator symmetry = 5  ( B1u); triplet =   F

RSPORT:    1 out of    9 new trial vectors linear dependent

 ** RSPCTL MICROITERATION NUMBER    1

       No.  Residual tot.,    conf., and orb.    Bnorm      Frequency 
      ----------------------------------------------------------------
         1    3.25270D+00  0.00D+00  3.25D+00  2.32D+00    0.00000D+00
         2    3.25513D+00  0.00D+00  3.26D+00  2.32D+00    1.82502D-02
         3    3.26245D+00  0.00D+00  3.26D+00  2.33D+00    3.65004D-02
         4    3.27474D+00  0.00D+00  3.27D+00  2.35D+00    5.47506D-02
         5    3.29212D+00  0.00D+00  3.29D+00  2.38D+00    7.30008D-02
         6    3.31479D+00  0.00D+00  3.31D+00  2.42D+00    9.12509D-02
         7    3.34300D+00  0.00D+00  3.34D+00  2.46D+00    1.09501D-01
         8    3.37707D+00  0.00D+00  3.38D+00  2.51D+00    1.27751D-01
         9    3.41742D+00  0.00D+00  3.42D+00  2.58D+00    1.46002D-01

 ** RSPCTL MICROITERATION NUMBER    2

       No.  Residual tot.,    conf., and orb.    Bnorm      Frequency 
      ----------------------------------------------------------------
         1    4.06198D-01  0.00D+00  4.06D-01  3.12D+00    0.00000D+00
         2    4.06788D-01  0.00D+00  4.07D-01  3.13D+00    1.82502D-02
         3    4.08566D-01  0.00D+00  4.09D-01  3.14D+00    3.65004D-02
         4    4.11562D-01  0.00D+00  4.12D-01  3.17D+00    5.47506D-02
         5    4.15826D-01  0.00D+00  4.16D-01  3.22D+00    7.30008D-02
         6    4.21429D-01  0.00D+00  4.21D-01  3.27D+00    9.12509D-02
         7    4.28470D-01  0.00D+00  4.28D-01  3.34D+00    1.09501D-01
         8    4.37077D-01  0.00D+00  4.37D-01  3.42D+00    1.27751D-01
         9    4.47415D-01  0.00D+00  4.47D-01  3.52D+00    1.46002D-01

 ** RSPCTL MICROITERATION NUMBER    3

       No.  Residual tot.,    conf., and orb.    Bnorm      Frequency 
      ----------------------------------------------------------------
         1    3.49859D-02  0.00D+00  3.50D-02  3.13D+00    0.00000D+00
         2    3.50480D-02  0.00D+00  3.50D-02  3.13D+00    1.82502D-02
         3    3.52354D-02  0.00D+00  3.52D-02  3.15D+00    3.65004D-02
         4    3.55514D-02  0.00D+00  3.56D-02  3.18D+00    5.47506D-02
         5    3.60022D-02  0.00D+00  3.60D-02  3.22D+00    7.30008D-02
         6    3.65964D-02  0.00D+00  3.66D-02  3.28D+00    9.12509D-02
         7    3.73458D-02  0.00D+00  3.73D-02  3.35D+00    1.09501D-01
         8    3.82660D-02  0.00D+00  3.83D-02  3.43D+00    1.27751D-01
         9    3.93771D-02  0.00D+00  3.94D-02  3.53D+00    1.46002D-01

 ** RSPCTL MICROITERATION NUMBER    4

       No.  Residual tot.,    conf., and orb.    Bnorm      Frequency 
      ----------------------------------------------------------------
         1    3.06364D-03  0.00D+00  3.06D-03  3.13D+00    0.00000D+00
         2    3.07377D-03  0.00D+00  3.07D-03  3.13D+00    1.82502D-02
         3    3.10445D-03  0.00D+00  3.10D-03  3.15D+00    3.65004D-02
         4    3.15653D-03  0.00D+00  3.16D-03  3.18D+00    5.47506D-02
         5    3.23145D-03  0.00D+00  3.23D-03  3.22D+00    7.30008D-02
         6    3.33135D-03  0.00D+00  3.33D-03  3.28D+00    9.12509D-02
         7    3.45909D-03  0.00D+00  3.46D-03  3.35D+00    1.09501D-01
         8    3.61845D-03  0.00D+00  3.62D-03  3.43D+00    1.27751D-01
         9    3.81422D-03  0.00D+00  3.81D-03  3.54D+00    1.46002D-01

 ** RSPCTL MICROITERATION NUMBER    5

       No.  Residual tot.,    conf., and orb.    Bnorm      Frequency 
      ----------------------------------------------------------------
         1    2.11385D-04  0.00D+00  2.11D-04  3.13D+00    0.00000D+00
         2    2.12342D-04  0.00D+00  2.12D-04  3.13D+00    1.82502D-02
         3    2.15247D-04  0.00D+00  2.15D-04  3.15D+00    3.65004D-02
         4    2.20197D-04  0.00D+00  2.20D-04  3.18D+00    5.47506D-02
         5    2.27363D-04  0.00D+00  2.27D-04  3.22D+00    7.30008D-02
         6    2.36994D-04  0.00D+00  2.37D-04  3.28D+00    9.12509D-02
         7    2.49437D-04  0.00D+00  2.49D-04  3.35D+00    1.09501D-01
         8    2.65153D-04  0.00D+00  2.65D-04  3.43D+00    1.27751D-01
         9    2.84752D-04  0.00D+00  2.85D-04  3.54D+00    1.46002D-01

 *** THE REQUESTED    9 SOLUTION VECTORS CONVERGED

 Convergence of RSP solution vectors, threshold = 1.00D-03
 ---------------------------------------------------------------
 (dimension of paired reduced space:   80)
 RSP solution vector no.    1; norm of residual   6.76D-05
 RSP solution vector no.    2; norm of residual   6.77D-05
 RSP solution vector no.    3; norm of residual   6.83D-05
 RSP solution vector no.    4; norm of residual   6.92D-05
 RSP solution vector no.    5; norm of residual   7.05D-05
 RSP solution vector no.    6; norm of residual   7.22D-05
 RSP solution vector no.    7; norm of residual   7.45D-05
 RSP solution vector no.    8; norm of residual   7.72D-05
 RSP solution vector no.    9; norm of residual   8.06D-05

 *** RSPCTL MICROITERATIONS CONVERGED


           Final output of second order properties from linear response
           ------------------------------------------------------------


@ Spin symmetry of operators: singlet

 Note that minus the linear response function: - << A; B >>(omega) is printed.
 The results are of quadratic accuracy using Sellers formula.

@ FREQUENCY INDEPENDENT SECOND ORDER PROPERTIES

@ -<< ZDIPLEN  ; ZDIPLEN  >> =  1.503061424050E+01

@ FREQUENCY DEPENDENT SECOND ORDER PROPERTIES WITH FREQUENCY :

@    a.u.:  1.8250188D-02
@    cm-1:  4.0054531D+03
@    eV  :  4.9661286D-01
@  kJ/mol:  4.7915860D+01
@    nm  :  2.4965964D+03

@ -<< ZDIPLEN  ; ZDIPLEN  >> =  1.504456998293E+01

@ FREQUENCY DEPENDENT SECOND ORDER PROPERTIES WITH FREQUENCY :

@    a.u.:  3.6500375D-02
@    cm-1:  8.0109063D+03
@    eV  :  9.9322573D-01
@  kJ/mol:  9.5831720D+01
@    nm  :  1.2482982D+03

@ -<< ZDIPLEN  ; ZDIPLEN  >> =  1.508662608136E+01

@ FREQUENCY DEPENDENT SECOND ORDER PROPERTIES WITH FREQUENCY :

@    a.u.:  5.4750563D-02
@    cm-1:  1.2016359D+04
@    eV  :  1.4898386D+00
@  kJ/mol:  1.4374758D+02
@    nm  :  8.3219881D+02

@ -<< ZDIPLEN  ; ZDIPLEN  >> =  1.515735600510E+01

@ FREQUENCY DEPENDENT SECOND ORDER PROPERTIES WITH FREQUENCY :

@    a.u.:  7.3000750D-02
@    cm-1:  1.6021813D+04
@    eV  :  1.9864515D+00
@  kJ/mol:  1.9166344D+02
@    nm  :  6.2414911D+02

@ -<< ZDIPLEN  ; ZDIPLEN  >> =  1.525773886997E+01

@ FREQUENCY DEPENDENT SECOND ORDER PROPERTIES WITH FREQUENCY :

@    a.u.:  9.1250938D-02
@    cm-1:  2.0027266D+04
@    eV  :  2.4830643D+00
@  kJ/mol:  2.3957930D+02
@    nm  :  4.9931929D+02

@ -<< ZDIPLEN  ; ZDIPLEN  >> =  1.538919617633E+01

@ FREQUENCY DEPENDENT SECOND ORDER PROPERTIES WITH FREQUENCY :

@    a.u.:  1.0950113D-01
@    cm-1:  2.4032719D+04
@    eV  :  2.9796772D+00
@  kJ/mol:  2.8749516D+02
@    nm  :  4.1609940D+02

@ -<< ZDIPLEN  ; ZDIPLEN  >> =  1.555364692703E+01

@ FREQUENCY DEPENDENT SECOND ORDER PROPERTIES WITH FREQUENCY :

@    a.u.:  1.2775131D-01
@    cm-1:  2.8038172D+04
@    eV  :  3.4762900D+00
@  kJ/mol:  3.3541102D+02
@    nm  :  3.5665663D+02

@ -<< ZDIPLEN  ; ZDIPLEN  >> =  1.575358533481E+01

@ FREQUENCY DEPENDENT SECOND ORDER PROPERTIES WITH FREQUENCY :

@    a.u.:  1.4600150D-01
@    cm-1:  3.2043625D+04
@    eV  :  3.9729029D+00
@  kJ/mol:  3.8332688D+02
@    nm  :  3.1207455D+02

@ -<< ZDIPLEN  ; ZDIPLEN  >> =  1.599218738810E+01


 Time used in linear response calculation is     83.32 CPU seconds for symmetry 5

  Total CPU  time used in RESPONSE:  3 minutes 41 seconds
  Total wall time used in RESPONSE:  3 minutes 41 seconds


                   .-------------------------------------------.
                   | End of Dynamic Property Section (RESPONS) |
                   `-------------------------------------------'



 PLTORB knows S,P,D,F,G shells. The basis set contains orbital(s) with higher angular momentum,
 and the writing of MOLPLT file is thus abandoned.

  Total CPU  time used in DALTON:  5 minutes 19 seconds
  Total wall time used in DALTON:  5 minutes 19 seconds

 
     Date and time (Linux)  : Wed Jan 11 14:24:08 2023
     Host name              : cn020                                   
