

     ************************************************************************
     *************** Dalton - An Electronic Structure Program ***************
     ************************************************************************

    This is output from DALTON release Dalton2020.0 (2020)
         ( Web site: http://daltonprogram.org )

   ----------------------------------------------------------------------------

    NOTE:
     
    Dalton is an experimental code for the evaluation of molecular
    properties using (MC)SCF, DFT, CI, and CC wave functions.
    The authors accept no responsibility for the performance of
    the code or for the correctness of the results.
     
    The code (in whole or part) is provided under a licence and
    is not to be reproduced for further distribution without
    the written permission of the authors or their representatives.
     
    See the home page "http://daltonprogram.org" for further information.
     
    If results obtained with this code are published,
    the appropriate citations would be both of:
     
       K. Aidas, C. Angeli, K. L. Bak, V. Bakken, R. Bast,
       L. Boman, O. Christiansen, R. Cimiraglia, S. Coriani,
       P. Dahle, E. K. Dalskov, U. Ekstroem,
       T. Enevoldsen, J. J. Eriksen, P. Ettenhuber, B. Fernandez,
       L. Ferrighi, H. Fliegl, L. Frediani, K. Hald, A. Halkier,
       C. Haettig, H. Heiberg, T. Helgaker, A. C. Hennum,
       H. Hettema, E. Hjertenaes, S. Hoest, I.-M. Hoeyvik,
       M. F. Iozzi, B. Jansik, H. J. Aa. Jensen, D. Jonsson,
       P. Joergensen, J. Kauczor, S. Kirpekar,
       T. Kjaergaard, W. Klopper, S. Knecht, R. Kobayashi, H. Koch,
       J. Kongsted, A. Krapp, K. Kristensen, A. Ligabue,
       O. B. Lutnaes, J. I. Melo, K. V. Mikkelsen, R. H. Myhre,
       C. Neiss, C. B. Nielsen, P. Norman, J. Olsen,
       J. M. H. Olsen, A. Osted, M. J. Packer, F. Pawlowski,
       T. B. Pedersen, P. F. Provasi, S. Reine, Z. Rinkevicius,
       T. A. Ruden, K. Ruud, V. Rybkin, P. Salek, C. C. M. Samson,
       A. Sanchez de Meras, T. Saue, S. P. A. Sauer,
       B. Schimmelpfennig, K. Sneskov, A. H. Steindal,
       K. O. Sylvester-Hvid, P. R. Taylor, A. M. Teale,
       E. I. Tellgren, D. P. Tew, A. J. Thorvaldsen, L. Thoegersen,
       O. Vahtras, M. A. Watson, D. J. D. Wilson, M. Ziolkowski
       and H. Agren,
       "The Dalton quantum chemistry program system",
       WIREs Comput. Mol. Sci. 2014, 4:269–284 (doi: 10.1002/wcms.1172)
     
    and
     
       Dalton, a molecular electronic structure program,
       Release Dalton2020.0 (2020), see http://daltonprogram.org
   ----------------------------------------------------------------------------

    Authors in alphabetical order (Major contribution(s) in parenthesis):

  Kestutis Aidas,           Vilnius University,           Lithuania   (QM/MM)
  Celestino Angeli,         University of Ferrara,        Italy       (NEVPT2)
  Keld L. Bak,              UNI-C,                        Denmark     (AOSOPPA, non-adiabatic coupling, magnetic properties)
  Vebjoern Bakken,          University of Oslo,           Norway      (DALTON; geometry optimizer, symmetry detection)
  Radovan Bast,             UiT The Arctic U. of Norway,  Norway      (DALTON installation and execution frameworks)
  Pablo Baudin,             University of Valencia,       Spain       (Cholesky excitation energies)
  Linus Boman,              NTNU,                         Norway      (Cholesky decomposition and subsystems)
  Bruno N. Cabral Tenorio,  Technical Univ. of Denmark,   Denmark     (Lanczos-based CC methods)
  Ove Christiansen,         Aarhus University,            Denmark     (CC module)
  Renzo Cimiraglia,         University of Ferrara,        Italy       (NEVPT2)
  Sonia Coriani,            Technical Univ. of Denmark,   Denmark     (CC and RESPONS modules)
  Janusz Cukras,            University of Warsaw,         Poland      (MChD in RESPONS)
  Paal Dahle,               University of Oslo,           Norway      (Parallelization)
  Erik K. Dalskov,          UNI-C,                        Denmark     (SOPPA)
  Thomas Enevoldsen,        Univ. of Southern Denmark,    Denmark     (SOPPA)
  Janus J. Eriksen,         Aarhus University,            Denmark     (Polarizable embedding, TDA)
  Rasmus Faber,             Technical Univ. of Denmark,   Denmark     (Vib.avg. NMR w. SOPPA, parallel AO-SOPPA, CVS-CC and EOMCC)
  Tobias Fahleson,          KTH Stockholm,                Sweden      (Damped cubic response)
  Berta Fernandez,          U. of Santiago de Compostela, Spain       (Doublet spin, ESR in RESPONS)
  Lara Ferrighi,            Aarhus University,            Denmark     (PCM Cubic response)
  Heike Fliegl,             University of Oslo,           Norway      (CCSD(R12))
  Luca Frediani,            UiT The Arctic U. of Norway,  Norway      (PCM)
  Emmanuel Fromager,        Univ. Strasbourg,             France      (MC-srDFT)
  Bin Gao,                  UiT The Arctic U. of Norway,  Norway      (Gen1Int library)
  Andre S. P. Gomes,        CNRS/Universite de Lille,     France      (Frozen density embedding)
  Christof Haettig,         Ruhr-University Bochum,       Germany     (CC module)
  Kasper Hald,              Aarhus University,            Denmark     (CC module)
  Asger Halkier,            Aarhus University,            Denmark     (CC module)
  Frederik Beyer Hansen,    University of Copenhagen,     Denmark     (Parallel AO-SOPPA)
  Erik D. Hedegaard,        Univ. of Southern Denmark,    Denmark     (Polarizable embedding, QM/MM, and MC-srDFT)
  Hanne Heiberg,            University of Oslo,           Norway      (Geometry analysis, selected one-electron integrals)
  Trygve Helgaker,          University of Oslo,           Norway      (DALTON; ABACUS, ERI, DFT modules, London, and much more)
  Alf Christian Hennum,     University of Oslo,           Norway      (Parity violation)
  Hinne Hettema,            University of Auckland,       New Zealand (Quadratic response in RESPONS; SIRIUS supersymmetry)
  Eirik Hjertenaes,         NTNU,                         Norway      (Cholesky decomposition)
  Pi A. B. Haase,           University of Copenhagen,     Denmark     (Triplet AO-SOPPA)
  Maria Francesca Iozzi,    University of Oslo,           Norway      (RPA)
  Christoph Jacob           TU Braunschweig               Germany     (Frozen density embedding)
  Brano Jansik              Technical Univ. of Ostrava    Czech Rep.  (DFT cubic response)
  Hans Joergen Aa. Jensen,  Univ. of Southern Denmark,    Denmark     (DALTON; SIRIUS, RESPONS, ABACUS, MC-srDFT, and much more)
  Dan Jonsson,              UiT The Arctic U. of Norway,  Norway      (Cubic response in RESPONS module)
  Poul Joergensen,          Aarhus University,            Denmark     (RESPONS, ABACUS, and CC modules)
  Maciej Kaminski,          University of Warsaw,         Poland      (CPPh in RESPONS)
  Joanna Kauczor,           Linkoeping University,        Sweden      (Complex polarization propagator (CPP) module)
  Sheela Kirpekar,          Univ. of Southern Denmark,    Denmark     (Mass-velocity & Darwin integrals)
  Erik Kjellgren,           Univ. of Southern Denmark,    Denmark     (MC-srDFT)
  Wim Klopper,              KIT Karlsruhe,                Germany     (R12 code in CC, SIRIUS, and ABACUS modules)
  Stefan Knecht,            ETH Zurich,                   Switzerland (Parallel CI and MCSCF, MC-srDFT)
  Rika Kobayashi,           Australian National Univ.,    Australia   (DIIS in CC, London in MCSCF)
  Henrik Koch,              NTNU,                         Norway      (CC module, Cholesky decomposition)
  Jacob Kongsted,           Univ. of Southern Denmark,    Denmark     (Polarizable embedding, polarizable density embedding, QM/MM)
  Andrea Ligabue,           University of Modena,         Italy       (CTOCD, AOSOPPA)
  Nanna H. List             Univ. of Southern Denmark,    Denmark     (Polarizable embedding)
  Ola B. Lutnaes,           University of Oslo,           Norway      (DFT Hessian)
  Juan I. Melo,             University of Buenos Aires,   Argentina   (LRESC, Relativistic Effects on NMR Shieldings)
  Kurt V. Mikkelsen,        University of Copenhagen,     Denmark     (MC-SCRF and QM/MM)
  Rolf H. Myhre,            NTNU,                         Norway      (Subsystems and CC3)
  Christian Neiss,          Univ. Erlangen-Nuernberg,     Germany     (CCSD(R12))
  Christian B. Nielsen,     University of Copenhagen,     Denmark     (QM/MM)
  Patrick Norman,           KTH Stockholm,                Sweden      (Cubic response and complex frequency response in RESPONS)
  Jeppe Olsen,              Aarhus University,            Denmark     (SIRIUS CI/density modules)
  Jogvan Magnus H. Olsen,   Aarhus University,            Denmark     (Polarizable embedding and polarizable density embedding)
  Anders Osted,             Copenhagen University,        Denmark     (QM/MM)
  Martin J. Packer,         University of Sheffield,      UK          (SOPPA)
  Filip Pawlowski,          Kazimierz Wielki University,  Poland      (CC3)
  Morten N. Pedersen,       Univ. of Southern Denmark,    Denmark     (Polarizable embedding)
  Thomas B. Pedersen,       University of Oslo,           Norway      (Cholesky decomposition)
  Patricio F. Provasi,      University of Northeastern,   Argentina   (Analysis of coupling constants in localized orbitals)
  Peter Reinholdt,          Univ. of Southern Denmark,    Denmark     (Polarizable embedding and polarizable density embedding)
  Zilvinas Rinkevicius,     KTH Stockholm,                Sweden      (open-shell DFT, ESR)
  Elias Rudberg,            KTH Stockholm,                Sweden      (DFT grid and basis info)
  Torgeir A. Ruden,         University of Oslo,           Norway      (Numerical derivatives in ABACUS)
  Kenneth Ruud,             UiT The Arctic U. of Norway,  Norway      (DALTON; ABACUS magnetic properties and much more)
  Pawel Salek,              KTH Stockholm,                Sweden      (DALTON; DFT code)
  Claire C. M. Samson       University of Karlsruhe       Germany     (Boys localization, r12 integrals in ERI)
  Alfredo Sanchez de Meras, University of Valencia,       Spain       (CC module, Cholesky decomposition)
  Trond Saue,               Paul Sabatier University,     France      (direct Fock matrix construction)
  Stephan P. A. Sauer,      University of Copenhagen,     Denmark     (SOPPA(CCSD), SOPPA prop., AOSOPPA, vibrational g-factors)
  Bernd Schimmelpfennig,    Forschungszentrum Karlsruhe,  Germany     (AMFI module)
  Anna K. Schnack-Petersen, University of Copenhagen,     Denmark     (RPA(D) and HRPA(D) properties in AOSOPPA)
  Kristian Sneskov,         Aarhus University,            Denmark     (Polarizable embedding, QM/MM)
  Arnfinn H. Steindal,      UiT The Arctic U. of Norway,  Norway      (parallel QM/MM, polarizable embedding)
  Casper Steinmann,         Aalborg University,           Denmark     (QFIT, polarizable embedding)
  K. O. Sylvester-Hvid,     University of Copenhagen,     Denmark     (MC-SCRF)
  Peter R. Taylor,          VLSCI/Univ. of Melbourne,     Australia   (Symmetry handling ABACUS, integral transformation)
  Andrew M. Teale,          University of Nottingham,     England     (DFT-AC, DFT-D)
  David P. Tew,             University of Bristol,        England     (CCSD(R12))
  Julien Toulouse,          Sorbonne Univ.,               France      (MC-srDFT)
  Olav Vahtras,             KTH Stockholm,                Sweden      (Triplet response, spin-orbit, ESR, TDDFT, open-shell DFT)
  Lucas Visscher,           Vrije Universiteit Amsterdam, Netherlands (Frozen density embedding)
  David J. Wilson,          La Trobe University,          Australia   (DFT Hessian and DFT magnetizabilities)
  Hans Agren,               KTH Stockholm,                Sweden      (SIRIUS module, RESPONS, MC-SCRF solvation)
 --------------------------------------------------------------------------------

     Date and time (Linux)  : Wed Jan 11 15:39:22 2023
     Host name              : cn021                                   

 * Work memory size             :    64000000 =  488.28 megabytes.

 * Directories for basis set searches:
   1) /gpfs/projects/rjh/adrian/fd_compare/dalton/hf/N2/dipole
   2) /gpfs/projects/rjh/adrian/dalton/build/basis


Compilation information
-----------------------

 Who compiled             | ahurtado
 Host                     | sn-mem
 System                   | Linux-3.10.0-1160.24.1.el7.x86_64
 CMake generator          | Unix Makefiles
 Processor                | x86_64
 64-bit integers          | OFF
 MPI                      | ON
 Fortran compiler         | /gpfs/software/intel/oneAPI/2021_4/mpi/2021.4.0/bi
                          | n/mpif90
 Fortran compiler version | GNU Fortran (GCC) 11.2.0
 C compiler               | /gpfs/software/intel/oneAPI/2021_4/mpi/2021.4.0/bi
                          | n/mpicc
 C compiler version       | gcc (GCC) 11.2.0
 C++ compiler             | /gpfs/software/intel/oneAPI/2021_4/mpi/2021.4.0/bi
                          | n/mpicxx
 C++ compiler version     | unknown
 BLAS                     | /gpfs/software/intel/oneAPI/2021_4/mkl/2021.4.0/li
                          | b/intel64/libmkl_gf_lp64.so;/gpfs/software/intel/o
                          | neAPI/2021_4/mkl/2021.4.0/lib/intel64/libmkl_seque
                          | ntial.so;/gpfs/software/intel/oneAPI/2021_4/mkl/20
                          | 21.4.0/lib/intel64/libmkl_core.so;/usr/lib64/libpt
                          | hread.so;/usr/lib64/libm.so
 LAPACK                   | /gpfs/software/intel/oneAPI/2021_4/mkl/2021.4.0/li
                          | b/intel64/libmkl_lapack95_lp64.a;/gpfs/software/in
                          | tel/oneAPI/2021_4/mkl/2021.4.0/lib/intel64/libmkl_
                          | gf_lp64.so
 Static linking           | OFF
 Last Git revision        | 66052b3af5ea7225e31178bf9a8b031913c72190
 Git branch               | (HEAD detached at Dalton2020.0)
 Configuration time       | 2023-01-11 13:33:37.731835

 * MPI parallel run using 20 processes.


   Content of the .dal input file
 ----------------------------------

**DALTON INPUT
.RUN RESPONSE
.DIRECT
**WAVE FUNCTIONS
.HF
**RESPONSE
*LINEAR
.DIPLEN
.FREQUENCIES
9
0.0 0.0182501875 0.036500375 0.0547505625 0.07300075 0.0912509375 0.109501125 0.1277513125 0.1460015
**END OF DALTON INPUT


   Content of the .mol file
 ----------------------------

BASIS
d-aug-cc-pCVDZ
blah
blah
Atomtype=1 Atomic
Charge=7 Atoms=2
N_a 0.000000000000 0.000000000000 0.000000000000
N_b 0.000000000000 0.000000000000 2.074320000000


       *******************************************************************
       *********** Output from DALTON general input processing ***********
       *******************************************************************

 --------------------------------------------------------------------------------
   Overall default print level:    0
   Print level for DALTON.STAT:    1

    Parallel calculation using MPI
    AO-direct calculation (in sections where implemented)
    HERMIT 1- and 2-electron integral sections will be executed
    "Old" integral transformation used (limited to max 255 basis functions)
    Wave function sections will be executed (SIRIUS module)
    Dynamic molecular response properties section will be executed (RESPONSE module)
 --------------------------------------------------------------------------------


   ****************************************************************************
   *************** Output of molecule and basis set information ***************
   ****************************************************************************


    The two title cards from your ".mol" input:
    ------------------------------------------------------------------------
 1: blah                                                                    
 2: blah                                                                    
    ------------------------------------------------------------------------

  Atomic type no.    1
  --------------------
  Nuclear charge:   7.00000
  Number of symmetry independent centers:    2
  Number of basis sets to read;    2
  Basis set file used for this atomic type with Z =   7 :
     "/gpfs/projects/rjh/adrian/dalton/build/basis/aug-cc-pCVDZ"


                      SYMADD: Requested addition of symmetry
                      --------------------------------------

 Symmetry test threshold:  5.00E-06

@   The molecule is centered at center of mass and rotated
@   so principal axes of inertia are along coordinate axes.

 Symmetry class found: D(oo,h)        

 Symmetry Independent Centres             
 ----------------------------
N_b    7 :      0.00000000     0.00000000     1.03716000  Isotope  1

 The following symmetry elements were found:   X  Y  Z  


                         SYMGRP: Point group information
                         -------------------------------

@    Full point group is: D(oo,h)        
@    Represented as:      D2h

@  * The irrep name for each symmetry:    1: Ag     2: B3u    3: B2u    4: B1g    5: B1u    6: B2g    7: B3g    8: Au 


   * The point group was generated by:

      Reflection in the yz-plane
      Reflection in the xz-plane
      Reflection in the xy-plane

   * Group multiplication table

        |  E   C2z  C2y  C2x   i   Oxy  Oxz  Oyz
   -----+----------------------------------------
     E  |  E   C2z  C2y  C2x   i   Oxy  Oxz  Oyz
    C2z | C2z   E   C2x  C2y  Oxy   i   Oyz  Oxz
    C2y | C2y  C2x   E   C2z  Oxz  Oyz   i   Oxy
    C2x | C2x  C2y  C2z   E   Oyz  Oxz  Oxy   i 
     i  |  i   Oxy  Oxz  Oyz   E   C2z  C2y  C2x
    Oxy | Oxy   i   Oyz  Oxz  C2z   E   C2x  C2y
    Oxz | Oxz  Oyz   i   Oxy  C2y  C2x   E   C2z
    Oyz | Oyz  Oxz  Oxy   i   C2x  C2y  C2z   E 

   * Character table

        |  E   C2z  C2y  C2x   i   Oxy  Oxz  Oyz
   -----+----------------------------------------
    Ag  |   1    1    1    1    1    1    1    1
    B3u |   1   -1   -1    1   -1    1    1   -1
    B2u |   1   -1    1   -1   -1    1   -1    1
    B1g |   1    1   -1   -1    1    1   -1   -1
    B1u |   1    1   -1   -1   -1   -1    1    1
    B2g |   1   -1    1   -1    1   -1    1   -1
    B3g |   1   -1   -1    1    1   -1   -1    1
    Au  |   1    1    1    1   -1   -1   -1   -1

   * Direct product table

        | Ag   B3u  B2u  B1g  B1u  B2g  B3g  Au 
   -----+----------------------------------------
    Ag  | Ag   B3u  B2u  B1g  B1u  B2g  B3g  Au 
    B3u | B3u  Ag   B1g  B2u  B2g  B1u  Au   B3g
    B2u | B2u  B1g  Ag   B3u  B3g  Au   B1u  B2g
    B1g | B1g  B2u  B3u  Ag   Au   B3g  B2g  B1u
    B1u | B1u  B2g  B3g  Au   Ag   B3u  B2u  B1g
    B2g | B2g  B1u  Au   B3g  B3u  Ag   B1g  B2u
    B3g | B3g  Au   B1u  B2g  B2u  B1g  Ag   B3u
    Au  | Au   B3g  B2g  B1u  B1g  B2u  B3u  Ag 


                                 Isotopic Masses
                                 ---------------

                           N_b _1     14.003074
                           N_b _2     14.003074

                       Total mass:    28.006148 amu
                       Natural abundance:  99.261 %

 Center-of-mass coordinates (a.u.):    0.000000    0.000000    0.000000
 Center-of-mass coordinates (Angs):    0.000000    0.000000    0.000000


  Atoms and basis sets
  --------------------

  Number of atom types :    1
  Total number of atoms:    2

  Basis set used is "d-aug-cc-pCVDZ" from the basis set library.

  label    atoms   charge   prim   cont     basis
  ----------------------------------------------------------------------
  N_          2    7.0000    48    36      [12s7p3d|6s5p3d]                                   
  ----------------------------------------------------------------------
  total:      2   14.0000    96    72
  ----------------------------------------------------------------------
  Spherical harmonic basis used.

  Threshold for neglecting AO integrals:  1.00D-12


  Cartesian Coordinates (a.u.)
  ----------------------------

  Total number of coordinates:    6
  N_b / 1 :     1  x   0.0000000000    2  y   0.0000000000    3  z   1.0371600000
  N_b / 2 :     4  x   0.0000000000    5  y   0.0000000000    6  z  -1.0371600000


  Symmetry Coordinates
  --------------------

  Number of coordinates in each symmetry:     1    1    1    0    1    1    1    0

  Symmetry  Ag  ( 1)

    1   N_b   z    [  3  -    6 ]/2

  Symmetry  B3u ( 2)

    2   N_b   x    [  1  +    4 ]/2

  Symmetry  B2u ( 3)

    3   N_b   y    [  2  +    5 ]/2

  Symmetry  B1u ( 5)

    4   N_b   z    [  3  +    6 ]/2

  Symmetry  B2g ( 6)

    5   N_b   x    [  1  -    4 ]/2

  Symmetry  B3g ( 7)

    6   N_b   y    [  2  -    5 ]/2


   Interatomic separations (in Angstrom):
   --------------------------------------

            N_b _1      N_b _2
            ------      ------
 N_b _1:    0.000000
 N_b _2:    1.097683    0.000000


  Max    interatomic separation is    1.0977 Angstrom (    2.0743 Bohr)
  between atoms    2 and    1, "N_b _2" and "N_b _1".

  Min YX interatomic separation is    1.0977 Angstrom (    2.0743 Bohr)


  Bond distances (Angstrom):
  --------------------------

                  atom 1     atom 2       distance
                  ------     ------       --------
  bond distance:  N_b _2     N_b _1       1.097683




 Principal moments of inertia (u*A**2) and principal axes
 --------------------------------------------------------

   IA       0.000000          0.000000    0.000000    1.000000
   IB       8.436206          0.000000    1.000000    0.000000
   IC       8.436206          1.000000    0.000000    0.000000


 Rotational constants
 --------------------

@    The molecule is linear.

               B =        59905.96 MHz     (    1.998248 cm-1)


@  Nuclear repulsion energy :   23.622199082109 Hartree


  Symmetry Orbitals
  -----------------

  Number of orbitals in each symmetry:          17    8    8    3   17    8    8    3


  Symmetry  Ag ( 1)

    1     N_b      1s         1 +    2
    2     N_b      1s         3 +    4
    3     N_b      1s         5 +    6
    4     N_b      1s         7 +    8
    5     N_b      1s         9 +   10
    6     N_b      1s        11 +   12
    7     N_b      2pz       17 -   18
    8     N_b      2pz       23 -   24
    9     N_b      2pz       29 -   30
   10     N_b      2pz       35 -   36
   11     N_b      2pz       41 -   42
   12     N_b      3d0       47 +   48
   13     N_b      3d2+      51 +   52
   14     N_b      3d0       57 +   58
   15     N_b      3d2+      61 +   62
   16     N_b      3d0       67 +   68
   17     N_b      3d2+      71 +   72


  Symmetry  B3u( 2)

   18     N_b      2px       13 +   14
   19     N_b      2px       19 +   20
   20     N_b      2px       25 +   26
   21     N_b      2px       31 +   32
   22     N_b      2px       37 +   38
   23     N_b      3d1+      49 -   50
   24     N_b      3d1+      59 -   60
   25     N_b      3d1+      69 -   70


  Symmetry  B2u( 3)

   26     N_b      2py       15 +   16
   27     N_b      2py       21 +   22
   28     N_b      2py       27 +   28
   29     N_b      2py       33 +   34
   30     N_b      2py       39 +   40
   31     N_b      3d1-      45 -   46
   32     N_b      3d1-      55 -   56
   33     N_b      3d1-      65 -   66


  Symmetry  B1g( 4)

   34     N_b      3d2-      43 +   44
   35     N_b      3d2-      53 +   54
   36     N_b      3d2-      63 +   64


  Symmetry  B1u( 5)

   37     N_b      1s         1 -    2
   38     N_b      1s         3 -    4
   39     N_b      1s         5 -    6
   40     N_b      1s         7 -    8
   41     N_b      1s         9 -   10
   42     N_b      1s        11 -   12
   43     N_b      2pz       17 +   18
   44     N_b      2pz       23 +   24
   45     N_b      2pz       29 +   30
   46     N_b      2pz       35 +   36
   47     N_b      2pz       41 +   42
   48     N_b      3d0       47 -   48
   49     N_b      3d2+      51 -   52
   50     N_b      3d0       57 -   58
   51     N_b      3d2+      61 -   62
   52     N_b      3d0       67 -   68
   53     N_b      3d2+      71 -   72


  Symmetry  B2g( 6)

   54     N_b      2px       13 -   14
   55     N_b      2px       19 -   20
   56     N_b      2px       25 -   26
   57     N_b      2px       31 -   32
   58     N_b      2px       37 -   38
   59     N_b      3d1+      49 +   50
   60     N_b      3d1+      59 +   60
   61     N_b      3d1+      69 +   70


  Symmetry  B3g( 7)

   62     N_b      2py       15 -   16
   63     N_b      2py       21 -   22
   64     N_b      2py       27 -   28
   65     N_b      2py       33 -   34
   66     N_b      2py       39 -   40
   67     N_b      3d1-      45 +   46
   68     N_b      3d1-      55 +   56
   69     N_b      3d1-      65 +   66


  Symmetry  Au ( 8)

   70     N_b      3d2-      43 -   44
   71     N_b      3d2-      53 -   54
   72     N_b      3d2-      63 -   64

  Symmetries of electric field:  B3u(2)  B2u(3)  B1u(5)

  Symmetries of magnetic field:  B3g(7)  B2g(6)  B1g(4)


                     .---------------------------------------.
                     | Starting in Integral Section (HERMIT) |
                     `---------------------------------------'



 ***************************************************************************************
 ****************** Output from **INTEGRALS input processing (HERMIT) ******************
 ***************************************************************************************


 - Using defaults, no **INTEGRALS input found

 Default print level:        1

 Calculation of one-electron Hamiltonian integrals.

 Center of mass  (bohr):      0.000000000000      0.000000000000      0.000000000000
 Operator center (bohr):      0.000000000000      0.000000000000      0.000000000000
 Gauge origin    (bohr):      0.000000000000      0.000000000000      0.000000000000
 Dipole origin   (bohr):      0.000000000000      0.000000000000      0.000000000000


     ************************************************************************
     ************************** Output from HERINT **************************
     ************************************************************************



                      Nuclear contribution to dipole moments
                      --------------------------------------

                    All dipole components are zero by symmetry


  Total CPU  time used in HERMIT:   0.05 seconds
  Total wall time used in HERMIT:   0.05 seconds


                        .----------------------------------.
                        | End of Integral Section (HERMIT) |
                        `----------------------------------'



                   .--------------------------------------------.
                   | Starting in Wave Function Section (SIRIUS) |
                   `--------------------------------------------'


 *** Output from Huckel module :

     Using EWMO model:          F
     Using EHT  model:          T
     Number of Huckel orbitals each symmetry:    3    1    1    0    3    1    1    0

 Huckel EHT eigenvalues for symmetry :  1
          -15.703205      -1.363953      -0.476809

 Huckel EHT eigenvalues for symmetry :  2
           -0.648566

 Huckel EHT eigenvalues for symmetry :  3
           -0.648566

 Huckel EHT eigenvalues for symmetry :  5
          -15.694742      -0.814285      -0.224605

 Huckel EHT eigenvalues for symmetry :  6
           -0.368834

 Huckel EHT eigenvalues for symmetry :  7
           -0.368834

 **********************************************************************
 *SIRIUS* a direct, restricted step, second order MCSCF program       *
 **********************************************************************

 
     Date and time (Linux)  : Wed Jan 11 15:39:22 2023
     Host name              : cn021                                   

 Title lines from ".mol" input file:
     blah                                                                    
     blah                                                                    

 Print level on unit LUPRI =   2 is   0
 Print level on unit LUW4  =   2 is   5

@    Restricted, closed shell Hartree-Fock calculation.

@    Time-dependent Hartree-Fock calculation (random phase approximation).
 Fock matrices are calculated directly and in parallel without use of integrals on disk.

 Initial molecular orbitals are obtained according to
 ".MOSTART EHT   " input option

     Wave function specification
     ============================
@    Wave function type        --- HF ---
@    Number of closed shell electrons          14
@    Number of electrons in active shells       0
@    Total charge of the molecule               0

@    Spin multiplicity and 2 M_S                1         0
@    Total number of symmetries                 8 (point group: D2h)
@    Reference state symmetry                   1 (irrep name : Ag )

     Orbital specifications
     ======================
@    Abelian symmetry species          All |    1    2    3    4    5    6    7    8
@                                          |  Ag   B3u  B2u  B1g  B1u  B2g  B3g  Au 
                                       --- |  ---  ---  ---  ---  ---  ---  ---  ---
@    Total number of orbitals           72 |   17    8    8    3   17    8    8    3
@    Number of basis functions          72 |   17    8    8    3   17    8    8    3

      ** Automatic occupation of RHF orbitals **

      -- Initial occupation of symmetries is determined from extended Huckel guess.           
      -- Initial occupation of symmetries is :
@    Occupied SCF orbitals               7 |    3    1    1    0    2    0    0    0

     Maximum number of Fock   iterations      0
     Maximum number of DIIS   iterations     60
     Maximum number of QC-SCF iterations     60
     Threshold for SCF convergence     1.00D-05


 ***********************************************
 ***** DIIS acceleration of SCF iterations *****
 ***********************************************

 C1-DIIS algorithm; max error vectors =    8

 Automatic occupation of symmetries with  14 electrons.

 Iter     Total energy    Error norm  Delta(E)    SCF occupation
 -----------------------------------------------------------------------------
   1  Screening settings (-IFTHRS, JTDIIS, DIFDEN, times)   -6    1    T  6.08D-02  6.00D-02
@  1  -108.636739061       2.85D+00  -1.09D+02     3   1   1   0   2   0   0   0
      Virial theorem: -V/T =      2.009476
@    MULPOP   N_b _1 -0.00; N_b _2 -0.00; 
   1  Level shift: doubly occupied orbital energies shifted by -2.00D-01
 -----------------------------------------------------------------------------
   2  Screening settings (-IFTHRS, JTDIIS, DIFDEN, times)   -6    2    T  4.07D-02  4.10D-02
@  2  -108.947665789       5.12D-01  -3.11D-01     3   1   1   0   2   0   0   0
      Virial theorem: -V/T =      1.997745
@    MULPOP   N_b _1 -0.00; N_b _2 -0.00; 
   2  Level shift: doubly occupied orbital energies shifted by -5.00D-02
 -----------------------------------------------------------------------------
   3  Screening settings (-IFTHRS, JTDIIS, DIFDEN, times)  -10    3    F  4.08D-02  4.10D-02
@  3  -108.960455262       1.08D-01  -1.28D-02     3   1   1   0   2   0   0   0
      Virial theorem: -V/T =      2.003197
@    MULPOP   N_b _1 -0.00; N_b _2 -0.00; 
   3  Level shift: doubly occupied orbital energies shifted by -1.25D-02
 -----------------------------------------------------------------------------
   4  Screening settings (-IFTHRS, JTDIIS, DIFDEN, times)  -10    4    T  4.06D-02  4.10D-02
@  4  -108.961517367       2.31D-02  -1.06D-03     3   1   1   0   2   0   0   0
      Virial theorem: -V/T =      2.002625
@    MULPOP   N_b _1 -0.00; N_b _2 -0.00; 
 -----------------------------------------------------------------------------
   5  Screening settings (-IFTHRS, JTDIIS, DIFDEN, times)  -10    5    T  4.05D-02  4.00D-02
@  5  -108.961576509       3.40D-03  -5.91D-05     3   1   1   0   2   0   0   0
      Virial theorem: -V/T =      2.002816
@    MULPOP   N_b _1 -0.00; N_b _2 -0.00; 
 -----------------------------------------------------------------------------
   6  Screening settings (-IFTHRS, JTDIIS, DIFDEN, times)  -10    6    T  4.01D-02  4.10D-02
@  6  -108.961578124       3.66D-04  -1.62D-06     3   1   1   0   2   0   0   0
      Virial theorem: -V/T =      2.002807
@    MULPOP   N_b _1 -0.00; N_b _2 -0.00; 
 -----------------------------------------------------------------------------
   7  Screening settings (-IFTHRS, JTDIIS, DIFDEN, times)  -10    7    T  4.01D-02  4.00D-02
@  7  -108.961578140       3.22D-05  -1.55D-08     3   1   1   0   2   0   0   0
      Virial theorem: -V/T =      2.002810
@    MULPOP   N_b _1  0.00; N_b _2  0.00; 
 -----------------------------------------------------------------------------
   8  Screening settings (-IFTHRS, JTDIIS, DIFDEN, times)  -10    8    T  4.01D-02  4.00D-02
@  8  -108.961578140       5.15D-06  -1.33D-10     3   1   1   0   2   0   0   0

@ *** DIIS converged in   8 iterations !
@     Converged SCF energy, gradient:   -108.961578139880    5.15D-06
    - total time used in SIRFCK :              0.00 seconds


 *** SCF orbital energy analysis ***

 Only the 20 lowest virtual orbital energies printed in each symmetry.

 Number of electrons :   14
 Orbital occupations :    3    1    1    0    2    0    0    0

 Sym       Hartree-Fock orbital energies

1 Ag    -15.69786210    -1.47944230    -0.63474925     0.02514843     0.05192819
          0.14658753     0.20193447     0.21143489     0.44358424     0.70036031
          0.72046932     1.41618327     1.77974704     2.34150049     2.89752521
         26.44781549    30.50139220

2 B3u    -0.61564968     0.03428320     0.18071753     0.29607945     0.84514782
          1.16506380     2.27264643    30.40707547

3 B2u    -0.61564968     0.03428320     0.18071753     0.29607945     0.84514782
          1.16506380     2.27264643    30.40707547

4 B1g     0.20193447     0.70036031     2.34150049

5 B1u   -15.69440978    -0.78120036     0.02294119     0.07508397     0.18771423
          0.27586586     0.27835314     0.43978589     0.79720946     0.96096034
          1.02490140     1.42990635     2.52576463     2.70953508     3.41700823
         27.60827206    32.70606777

6 B2g     0.04674255     0.12909981     0.21768663     0.43128681     1.14834876
          1.38313600     3.21726405    30.76556029

7 B3g     0.04674255     0.12909981     0.21768663     0.43128681     1.14834876
          1.38313600     3.21726405    30.76556029

8 Au      0.27586586     0.96096034     2.70953508

    E(LUMO) :     0.02294119 au (symmetry 5)
  - E(HOMO) :    -0.61564968 au (symmetry 2)
  ------------------------------------------
    gap     :     0.63859087 au

 --- Writing SIRIFC interface file

 CPU and wall time for SCF :       0.352       0.354


                       .-----------------------------------.
                       | --- Final results from SIRIUS --- |
                       `-----------------------------------'


@    Spin multiplicity:           1
@    Spatial symmetry:            1 ( irrep  Ag  in D2h )
@    Total charge of molecule:    0

@    Final HF energy:            -108.961578139880                 
@    Nuclear repulsion:            23.622199082109
@    Electronic energy:          -132.583777221989

@    Final gradient norm:           0.000005150133

 
     Date and time (Linux)  : Wed Jan 11 15:39:23 2023
     Host name              : cn021                                   

File label for MO orbitals:  11Jan23   FOCKDIIS

 (Only coefficients > 0.0100 are printed.)

 Molecular orbitals for symmetry species 1  (Ag )
 ------------------------------------------------

    Orbital         1        2        3        4        5        6        7
   1 N_b :1s     0.7079  -0.0110  -0.0017  -0.0023  -0.0036  -0.0232   0.0000
   2 N_b :1s     0.0042   0.6508   0.2178   0.0339   0.0176  -0.2207   0.0000
   3 N_b :1s    -0.0034  -0.1561   0.1501   0.1265   0.0771   0.4153   0.0000
   5 N_b :1s    -0.0003   0.0006   0.0498   0.5098   0.5899   1.9403  -0.0000
   6 N_b :1s     0.0003  -0.0053  -0.0011  -0.8963  -0.1471  -0.9350  -0.0000
   7 N_b :2pz   -0.0022  -0.3212   0.6674   0.0456   0.0190  -0.1188  -0.0000
   8 N_b :2pz    0.0027   0.1138  -0.1066   0.0128   0.0119   0.0369   0.0000
  10 N_b :2pz   -0.0028   0.0589  -0.0092   0.8483   0.7118   4.0798   0.0000
  11 N_b :2pz   -0.0003  -0.0022   0.0067  -1.0367   3.1448   0.4328  -0.0000
  12 N_b :3d0    0.0005   0.0291  -0.0246   0.0012   0.0004   0.0026   0.0000
  13 N_b :3d2+  -0.0000  -0.0000  -0.0000  -0.0000  -0.0000   0.0000   0.0262
  14 N_b :3d0   -0.0016   0.0001  -0.0019  -0.0180   0.0156  -0.0716  -0.0000
  15 N_b :3d2+   0.0000   0.0000   0.0000   0.0000   0.0000  -0.0000  -0.0588
  16 N_b :3d0    0.0011  -0.0181   0.0036  -0.2231  -0.2687  -1.2509  -0.0000
  17 N_b :3d2+  -0.0000  -0.0000  -0.0000  -0.0000  -0.0000   0.0000   0.5425

    Orbital         8        9       10       11       12       13
   1 N_b :1s    -0.0128   0.0391  -0.0000  -0.0030  -0.1046   0.6376
   2 N_b :1s    -0.1111  -0.0891  -0.0000   0.0954  -0.7808   3.1560
   3 N_b :1s    -0.1655  -1.7898   0.0000  -1.3534   3.4134  -2.5858
   4 N_b :1s    -0.0036   0.0100  -0.0000  -0.0022  -0.0221   0.1748
   5 N_b :1s     0.2565  -0.6999  -0.0000   0.3037  -0.4863  -0.3545
   6 N_b :1s     0.0223   0.6474  -0.0000   0.1266  -0.2512   0.1562
   7 N_b :2pz    0.0593  -0.1288  -0.0000  -0.2544  -0.9176  -0.2853
   8 N_b :2pz   -0.0286  -0.3321   0.0000  -0.0163   2.3675   1.3245
  10 N_b :2pz   -0.8602  -5.9747   0.0000  -2.1117   3.6784  -1.0554
  11 N_b :2pz    1.3902  -0.3642   0.0000   0.5973   0.0145  -0.3051
  12 N_b :3d0   -0.0265  -0.0158   0.0000   0.0110   0.0545   0.1899
  14 N_b :3d0    0.1329   0.1505  -0.0000   1.0434  -1.1343  -1.3090
  15 N_b :3d2+  -0.0000  -0.0000   0.6560  -0.0000  -0.0000   0.0000
  16 N_b :3d0   -0.3809   2.1592  -0.0000   0.3088  -1.2633   0.5495
  17 N_b :3d2+   0.0000   0.0000  -0.2937   0.0000   0.0000  -0.0000

 Molecular orbitals for symmetry species 2  (B3u)
 ------------------------------------------------

    Orbital         1        2        3        4        5        6        7
   1 N_b :2px    0.6304  -0.0415  -0.1507   0.0803  -0.2983  -1.0132   0.2701
   2 N_b :2px   -0.0481   0.0189  -0.1366   0.1523   0.8060   1.0854  -0.3302
   4 N_b :2px    0.0129  -0.1241   0.8266   0.1158  -0.3899  -0.1867   0.1255
   5 N_b :2px    0.0002   0.5652  -0.3467  -0.0373   0.1147   0.0514  -0.0375
   6 N_b :3d1+  -0.0438   0.0023   0.0236   0.0091   0.0193   0.0612   0.7257
   7 N_b :3d1+  -0.0170   0.0102  -0.0457  -0.0667   0.7850  -0.4550  -0.5849
   8 N_b :3d1+   0.0024  -0.0453   0.4252   1.4398  -0.3648   0.4387   0.2610

    Orbital         8
   1 N_b :2px   -0.3550
   2 N_b :2px    0.2918
   3 N_b :2px    0.7360
   4 N_b :2px   -0.0430
   5 N_b :2px    0.0126
   6 N_b :3d1+  -0.0195
   8 N_b :3d1+   0.0353

 Molecular orbitals for symmetry species 3  (B2u)
 ------------------------------------------------

    Orbital         1        2        3        4        5        6        7
   1 N_b :2py    0.6304  -0.0415  -0.1507   0.0803  -0.2983  -1.0132   0.2701
   2 N_b :2py   -0.0481   0.0189  -0.1366   0.1523   0.8060   1.0854  -0.3302
   4 N_b :2py    0.0129  -0.1241   0.8266   0.1158  -0.3899  -0.1867   0.1255
   5 N_b :2py    0.0002   0.5652  -0.3467  -0.0373   0.1147   0.0514  -0.0375
   6 N_b :3d1-  -0.0438   0.0023   0.0236   0.0091   0.0193   0.0612   0.7257
   7 N_b :3d1-  -0.0170   0.0102  -0.0457  -0.0667   0.7850  -0.4550  -0.5849
   8 N_b :3d1-   0.0024  -0.0453   0.4252   1.4398  -0.3648   0.4387   0.2610

    Orbital         8
   1 N_b :2py   -0.3550
   2 N_b :2py    0.2918
   3 N_b :2py    0.7360
   4 N_b :2py   -0.0430
   5 N_b :2py    0.0126
   6 N_b :3d1-  -0.0195
   8 N_b :3d1-   0.0353

 Molecular orbitals for symmetry species 4  (B1g)
 ------------------------------------------------

    Orbital         1        2        3
   1 N_b :3d2-   0.0262   0.0059   0.8060
   2 N_b :3d2-  -0.0588   0.6560  -0.4714
   3 N_b :3d2-   0.5425  -0.2937   0.1397

 Molecular orbitals for symmetry species 5  (B1u)
 ------------------------------------------------

    Orbital         1        2        3        4        5        6        7
   1 N_b :1s     0.7090  -0.0002  -0.0037   0.0122  -0.0249   0.0000   0.0287
   2 N_b :1s     0.0067   0.6382   0.0050   0.1070   0.0210   0.0000   0.1373
   3 N_b :1s    -0.0334   0.2493   0.3418  -0.7934   2.3527  -0.0000  -1.8950
   5 N_b :1s    -0.0187   0.0823   6.4524 -14.9326  41.8152  -0.0000  10.9785
   6 N_b :1s    -0.0047  -0.0785  25.5279 -47.3997  46.0194  -0.0000   6.4968
   7 N_b :2pz   -0.0028   0.3169   0.0073   0.0248   0.0383  -0.0000   0.0401
   8 N_b :2pz    0.0171  -0.1539  -0.2452   0.5925  -1.6421   0.0000   1.1379
  10 N_b :2pz    0.0044  -0.0008  -1.9298   4.5659 -12.4857   0.0000  -2.8557
  11 N_b :2pz    0.0005   0.0086  -3.6507   5.5497  -4.8769   0.0000  -0.7393
  12 N_b :3d0    0.0011  -0.0111   0.0023  -0.0094   0.0086   0.0000   0.0200
  13 N_b :3d2+  -0.0000  -0.0000  -0.0000  -0.0000  -0.0000   0.0199   0.0000
  14 N_b :3d0   -0.0036   0.0252   0.0445  -0.1161   0.3284  -0.0000  -0.3605
  15 N_b :3d2+   0.0000   0.0000   0.0000   0.0000   0.0000  -0.1294  -0.0000
  16 N_b :3d0   -0.0002  -0.0026   0.1840  -0.3965   0.9663  -0.0000   1.8079
  17 N_b :3d2+  -0.0000  -0.0000  -0.0000  -0.0000  -0.0000   2.0495   0.0000

    Orbital         8        9       10       11       12
   1 N_b :1s    -0.0791   0.0449  -0.0000  -0.2004  -0.0647
   2 N_b :1s    -0.5631   0.3759  -0.0000  -0.3539  -0.4847
   3 N_b :1s     5.4202  -3.1924   0.0000  21.1283   2.9766
   4 N_b :1s    -0.0226   0.0091  -0.0000  -0.0649  -0.0219
   5 N_b :1s    74.1896  16.0251   0.0000  58.1425  28.5885
   6 N_b :1s    34.0748   6.4171   0.0000  18.3721   9.9415
   7 N_b :2pz   -0.0668  -0.4676   0.0000  -0.1235   1.1201
   8 N_b :2pz   -4.1398   1.3021  -0.0000 -13.4548  -3.3189
  10 N_b :2pz  -19.5232  -4.0855  -0.0000 -14.3614  -7.1231
  11 N_b :2pz   -3.4652  -0.6729  -0.0000  -1.8360  -1.0191
  12 N_b :3d0    0.0534  -0.0165  -0.0000   0.0234   0.2991
  13 N_b :3d2+   0.0000  -0.0000  -0.0312  -0.0000   0.0000
  14 N_b :3d0    0.8599  -1.1019   0.0000   3.0065  -0.2065
  15 N_b :3d2+  -0.0000   0.0000   1.2861   0.0000  -0.0000
  16 N_b :3d0    1.9951   0.9898   0.0000   1.2446   1.0854
  17 N_b :3d2+   0.0000  -0.0000  -0.8167  -0.0000   0.0000

 Molecular orbitals for symmetry species 6  (B2g)
 ------------------------------------------------

    Orbital         1        2        3        4        5        6        7
   1 N_b :2px    0.0392   0.4487   0.4295   0.3494   0.6004   0.9404  -0.4016
   2 N_b :2px    0.0366   0.1155   0.2915   0.2010   2.4514  -5.2125   1.2868
   4 N_b :2px   -2.3109   5.7774 -16.2661  22.3193 -12.4476  -0.2052  -4.8313
   5 N_b :2px    4.4591  -1.7388   2.1913  -1.1943   0.5113  -0.1512   0.1986
   6 N_b :3d1+   0.0033   0.0140   0.0225  -0.0240   0.0740   0.0415   1.1862
   7 N_b :3d1+  -0.0268   0.0487  -0.1647   0.2986  -2.6694   2.3924  -1.2079
   8 N_b :3d1+   0.5342  -1.1248   3.8907  -6.2845   3.6969   0.1284   1.4431

    Orbital         8
   1 N_b :2px    0.4198
   2 N_b :2px   -0.6837
   3 N_b :2px   -0.7408
   4 N_b :2px   -0.4214
   6 N_b :3d1+  -0.0767
   7 N_b :3d1+   0.2011
   8 N_b :3d1+   0.1320

 Molecular orbitals for symmetry species 7  (B3g)
 ------------------------------------------------

    Orbital         1        2        3        4        5        6        7
   1 N_b :2py    0.0392   0.4487   0.4295   0.3494   0.6004   0.9404  -0.4016
   2 N_b :2py    0.0366   0.1155   0.2915   0.2010   2.4514  -5.2125   1.2868
   4 N_b :2py   -2.3109   5.7774 -16.2661  22.3193 -12.4476  -0.2052  -4.8313
   5 N_b :2py    4.4591  -1.7388   2.1913  -1.1943   0.5113  -0.1512   0.1986
   6 N_b :3d1-   0.0033   0.0140   0.0225  -0.0240   0.0740   0.0415   1.1862
   7 N_b :3d1-  -0.0268   0.0487  -0.1647   0.2986  -2.6694   2.3924  -1.2079
   8 N_b :3d1-   0.5342  -1.1248   3.8907  -6.2845   3.6969   0.1284   1.4431

    Orbital         8
   1 N_b :2py    0.4198
   2 N_b :2py   -0.6837
   3 N_b :2py   -0.7408
   4 N_b :2py   -0.4214
   6 N_b :3d1-  -0.0767
   7 N_b :3d1-   0.2011
   8 N_b :3d1-   0.1320

 Molecular orbitals for symmetry species 8  (Au )
 ------------------------------------------------

    Orbital         1        2        3
   1 N_b :3d2-   0.0199  -0.0312   0.9069
   2 N_b :3d2-  -0.1294   1.2861  -0.7097
   3 N_b :3d2-   2.0495  -0.8167   0.3515

  Total CPU  time used in SIRIUS :   0.36 seconds
  Total wall time used in SIRIUS :   0.37 seconds

 
     Date and time (Linux)  : Wed Jan 11 15:39:23 2023
     Host name              : cn021                                   


                     .---------------------------------------.
                     | End of Wave Function Section (SIRIUS) |
                     `---------------------------------------'



                 .------------------------------------------------.
                 | Starting in Dynamic Property Section (RESPONS) |
                 `------------------------------------------------'


 ----------------------------------------------------------------------------------------
  RESPONSE  -  an MCSCF, MC-srDFT, DFT, SOPPA and SOPPA-srDFT response property program
 ----------------------------------------------------------------------------------------


 -------- OUTPUT FROM RESPONSE INPUT PROCESSING --------




 Linear Response calculation
 ---------------------------

 Print level                                    : IPRLR  =   2
 Maximum number of iterations                   : MAXITL =  60
 Threshold for relative convergence             : THCLR  = 1.000D-03
 Maximum iterations in optimal orbital algorithm: MAXITO =   5

  9 B-frequencies  0.000000D+00  1.825019D-02  3.650038D-02  5.475056D-02  7.300075D-02
  9.125094D-02  1.095011D-01  1.277513D-01  1.460015D-01

    1 second order properties calculated with symmetry no.    2 and labels:

          XDIPLEN 

    1 second order properties calculated with symmetry no.    3 and labels:

          YDIPLEN 

    1 second order properties calculated with symmetry no.    5 and labels:

          ZDIPLEN 


   SCF energy         :     -108.961578139880146
 -- inactive part     :     -132.583777221988981
 -- nuclear repulsion :       23.622199082108835


                     ***************************************
                     *** RHF response calculation (TDHF) ***
                     ***************************************

 ----------------------------------------------------------------
 ----- Linear response calculation
 ----- Symmetry of excitation/property operator(s)    2  ( B3u)
 ----------------------------------------------------------------

 Number of excitations of this symmetry            0
 Number of response properties of this symmetry    1
 Number of C6/C8 properties of this symmetry       0


 Perturbation symmetry.     KSYMOP:           2
 Perturbation spin symmetry.TRPLET:           F
 Orbital variables.         KZWOPT:          54
 Configuration variables.   KZCONF:           0
 Total number of variables. KZVAR :          54


 RSPLR -- linear response calculation for symmetry 2  ( B3u)
 RSPLR -- operator label : XDIPLEN 
 RSPLR -- operator spin  :   0
 RSPLR -- frequencies    :     0.000000  0.018250  0.036500  0.054751  0.073001
                               0.091251  0.109501  0.127751  0.146002



 ---  SOLVING SETS OF LINEAR EQUATIONS FOR LINEAR RESPONSE PROPERTIES ---

 Operator symmetry = 2  ( B3u); triplet =   F


 ** RSPCTL MICROITERATION NUMBER    1

       No.  Residual tot.,    conf., and orb.    Bnorm      Frequency 
      ----------------------------------------------------------------
         1    6.99383D-01  0.00D+00  6.99D-01  2.33D+00    0.00000D+00
         2    6.99836D-01  0.00D+00  7.00D-01  2.33D+00    1.82502D-02
         3    7.01197D-01  0.00D+00  7.01D-01  2.34D+00    3.65004D-02
         4    7.03485D-01  0.00D+00  7.03D-01  2.35D+00    5.47506D-02
         5    7.06726D-01  0.00D+00  7.07D-01  2.38D+00    7.30008D-02
         6    7.10962D-01  0.00D+00  7.11D-01  2.41D+00    9.12509D-02
         7    7.16245D-01  0.00D+00  7.16D-01  2.44D+00    1.09501D-01
         8    7.22645D-01  0.00D+00  7.23D-01  2.49D+00    1.27751D-01
         9    7.30251D-01  0.00D+00  7.30D-01  2.54D+00    1.46002D-01

 ** RSPCTL MICROITERATION NUMBER    2

       No.  Residual tot.,    conf., and orb.    Bnorm      Frequency 
      ----------------------------------------------------------------
         1    4.73147D-02  0.00D+00  4.73D-02  2.37D+00    0.00000D+00
         2    4.73596D-02  0.00D+00  4.74D-02  2.38D+00    1.82502D-02
         3    4.74950D-02  0.00D+00  4.75D-02  2.39D+00    3.65004D-02
         4    4.77227D-02  0.00D+00  4.77D-02  2.40D+00    5.47506D-02
         5    4.80460D-02  0.00D+00  4.80D-02  2.43D+00    7.30008D-02
         6    4.84694D-02  0.00D+00  4.85D-02  2.46D+00    9.12509D-02
         7    4.89994D-02  0.00D+00  4.90D-02  2.50D+00    1.09501D-01
         8    4.96445D-02  0.00D+00  4.96D-02  2.54D+00    1.27751D-01
         9    5.04156D-02  0.00D+00  5.04D-02  2.60D+00    1.46002D-01

 ** RSPCTL MICROITERATION NUMBER    3

       No.  Residual tot.,    conf., and orb.    Bnorm      Frequency 
      ----------------------------------------------------------------
         1    5.62678D-03  0.00D+00  5.63D-03  2.37D+00    0.00000D+00
         2    5.63529D-03  0.00D+00  5.64D-03  2.38D+00    1.82502D-02
         3    5.66097D-03  0.00D+00  5.66D-03  2.39D+00    3.65004D-02
         4    5.70427D-03  0.00D+00  5.70D-03  2.40D+00    5.47506D-02
         5    5.76597D-03  0.00D+00  5.77D-03  2.43D+00    7.30008D-02
         6    5.84722D-03  0.00D+00  5.85D-03  2.46D+00    9.12509D-02
         7    5.94956D-03  0.00D+00  5.95D-03  2.50D+00    1.09501D-01
         8    6.07502D-03  0.00D+00  6.08D-03  2.54D+00    1.27751D-01
         9    6.22623D-03  0.00D+00  6.23D-03  2.60D+00    1.46002D-01

 ** RSPCTL MICROITERATION NUMBER    4

       No.  Residual tot.,    conf., and orb.    Bnorm      Frequency 
      ----------------------------------------------------------------
         1    2.10014D-04  0.00D+00  2.10D-04  2.37D+00    0.00000D+00
         2    2.10407D-04  0.00D+00  2.10D-04  2.38D+00    1.82502D-02
         3    2.11593D-04  0.00D+00  2.12D-04  2.39D+00    3.65004D-02
         4    2.13592D-04  0.00D+00  2.14D-04  2.40D+00    5.47506D-02
         5    2.16438D-04  0.00D+00  2.16D-04  2.43D+00    7.30008D-02
         6    2.20178D-04  0.00D+00  2.20D-04  2.46D+00    9.12509D-02
         7    2.24881D-04  0.00D+00  2.25D-04  2.50D+00    1.09501D-01
         8    2.30631D-04  0.00D+00  2.31D-04  2.54D+00    1.27751D-01
         9    2.37538D-04  0.00D+00  2.38D-04  2.60D+00    1.46002D-01

 *** THE REQUESTED    9 SOLUTION VECTORS CONVERGED

 Convergence of RSP solution vectors, threshold = 1.00D-03
 ---------------------------------------------------------------
 (dimension of paired reduced space:   72)
 RSP solution vector no.    1; norm of residual   8.84D-05
 RSP solution vector no.    2; norm of residual   8.85D-05
 RSP solution vector no.    3; norm of residual   8.86D-05
 RSP solution vector no.    4; norm of residual   8.88D-05
 RSP solution vector no.    5; norm of residual   8.91D-05
 RSP solution vector no.    6; norm of residual   8.95D-05
 RSP solution vector no.    7; norm of residual   9.00D-05
 RSP solution vector no.    8; norm of residual   9.06D-05
 RSP solution vector no.    9; norm of residual   9.14D-05

 *** RSPCTL MICROITERATIONS CONVERGED


           Final output of second order properties from linear response
           ------------------------------------------------------------


@ Spin symmetry of operators: singlet

 Note that minus the linear response function: - << A; B >>(omega) is printed.
 The results are of quadratic accuracy using Sellers formula.

@ FREQUENCY INDEPENDENT SECOND ORDER PROPERTIES

@ -<< XDIPLEN  ; XDIPLEN  >> =  9.771449143813E+00

@ FREQUENCY DEPENDENT SECOND ORDER PROPERTIES WITH FREQUENCY :

@    a.u.:  1.8250188D-02
@    cm-1:  4.0054531D+03
@    eV  :  4.9661286D-01
@  kJ/mol:  4.7915860D+01
@    nm  :  2.4965964D+03

@ -<< XDIPLEN  ; XDIPLEN  >> =  9.778114957760E+00

@ FREQUENCY DEPENDENT SECOND ORDER PROPERTIES WITH FREQUENCY :

@    a.u.:  3.6500375D-02
@    cm-1:  8.0109063D+03
@    eV  :  9.9322573D-01
@  kJ/mol:  9.5831720D+01
@    nm  :  1.2482982D+03

@ -<< XDIPLEN  ; XDIPLEN  >> =  9.798186244813E+00

@ FREQUENCY DEPENDENT SECOND ORDER PROPERTIES WITH FREQUENCY :

@    a.u.:  5.4750563D-02
@    cm-1:  1.2016359D+04
@    eV  :  1.4898386D+00
@  kJ/mol:  1.4374758D+02
@    nm  :  8.3219881D+02

@ -<< XDIPLEN  ; XDIPLEN  >> =  9.831886906944E+00

@ FREQUENCY DEPENDENT SECOND ORDER PROPERTIES WITH FREQUENCY :

@    a.u.:  7.3000750D-02
@    cm-1:  1.6021813D+04
@    eV  :  1.9864515D+00
@  kJ/mol:  1.9166344D+02
@    nm  :  6.2414911D+02

@ -<< XDIPLEN  ; XDIPLEN  >> =  9.879598156422E+00

@ FREQUENCY DEPENDENT SECOND ORDER PROPERTIES WITH FREQUENCY :

@    a.u.:  9.1250938D-02
@    cm-1:  2.0027266D+04
@    eV  :  2.4830643D+00
@  kJ/mol:  2.3957930D+02
@    nm  :  4.9931929D+02

@ -<< XDIPLEN  ; XDIPLEN  >> =  9.941871137446E+00

@ FREQUENCY DEPENDENT SECOND ORDER PROPERTIES WITH FREQUENCY :

@    a.u.:  1.0950113D-01
@    cm-1:  2.4032719D+04
@    eV  :  2.9796772D+00
@  kJ/mol:  2.8749516D+02
@    nm  :  4.1609940D+02

@ -<< XDIPLEN  ; XDIPLEN  >> =  1.001944577822E+01

@ FREQUENCY DEPENDENT SECOND ORDER PROPERTIES WITH FREQUENCY :

@    a.u.:  1.2775131D-01
@    cm-1:  2.8038172D+04
@    eV  :  3.4762900D+00
@  kJ/mol:  3.3541102D+02
@    nm  :  3.5665663D+02

@ -<< XDIPLEN  ; XDIPLEN  >> =  1.011327721980E+01

@ FREQUENCY DEPENDENT SECOND ORDER PROPERTIES WITH FREQUENCY :

@    a.u.:  1.4600150D-01
@    cm-1:  3.2043625D+04
@    eV  :  3.9729029D+00
@  kJ/mol:  3.8332688D+02
@    nm  :  3.1207455D+02

@ -<< XDIPLEN  ; XDIPLEN  >> =  1.022457182158E+01


 Time used in linear response calculation is      0.51 CPU seconds for symmetry 2
 ----------------------------------------------------------------
 ----- Linear response calculation
 ----- Symmetry of excitation/property operator(s)    3  ( B2u)
 ----------------------------------------------------------------

 Number of excitations of this symmetry            0
 Number of response properties of this symmetry    1
 Number of C6/C8 properties of this symmetry       0


 Perturbation symmetry.     KSYMOP:           3
 Perturbation spin symmetry.TRPLET:           F
 Orbital variables.         KZWOPT:          54
 Configuration variables.   KZCONF:           0
 Total number of variables. KZVAR :          54


 RSPLR -- linear response calculation for symmetry 3  ( B2u)
 RSPLR -- operator label : YDIPLEN 
 RSPLR -- operator spin  :   0
 RSPLR -- frequencies    :     0.000000  0.018250  0.036500  0.054751  0.073001
                               0.091251  0.109501  0.127751  0.146002



 ---  SOLVING SETS OF LINEAR EQUATIONS FOR LINEAR RESPONSE PROPERTIES ---

 Operator symmetry = 3  ( B2u); triplet =   F

RSPORT:    1 out of    9 new trial vectors linear dependent

 ** RSPCTL MICROITERATION NUMBER    1

       No.  Residual tot.,    conf., and orb.    Bnorm      Frequency 
      ----------------------------------------------------------------
         1    7.08256D-01  0.00D+00  7.08D-01  2.33D+00    0.00000D+00
         2    7.08679D-01  0.00D+00  7.09D-01  2.33D+00    1.82502D-02
         3    7.09952D-01  0.00D+00  7.10D-01  2.34D+00    3.65004D-02
         4    7.12090D-01  0.00D+00  7.12D-01  2.35D+00    5.47506D-02
         5    7.15118D-01  0.00D+00  7.15D-01  2.38D+00    7.30008D-02
         6    7.19071D-01  0.00D+00  7.19D-01  2.41D+00    9.12509D-02
         7    7.23999D-01  0.00D+00  7.24D-01  2.44D+00    1.09501D-01
         8    7.29963D-01  0.00D+00  7.30D-01  2.49D+00    1.27751D-01
         9    7.37042D-01  0.00D+00  7.37D-01  2.54D+00    1.46002D-01

 ** RSPCTL MICROITERATION NUMBER    2

       No.  Residual tot.,    conf., and orb.    Bnorm      Frequency 
      ----------------------------------------------------------------
         1    4.27365D-02  0.00D+00  4.27D-02  2.37D+00    0.00000D+00
         2    4.27869D-02  0.00D+00  4.28D-02  2.38D+00    1.82502D-02
         3    4.29392D-02  0.00D+00  4.29D-02  2.39D+00    3.65004D-02
         4    4.31963D-02  0.00D+00  4.32D-02  2.40D+00    5.47506D-02
         5    4.35636D-02  0.00D+00  4.36D-02  2.43D+00    7.30008D-02
         6    4.40488D-02  0.00D+00  4.40D-02  2.46D+00    9.12509D-02
         7    4.46625D-02  0.00D+00  4.47D-02  2.50D+00    1.09501D-01
         8    4.54192D-02  0.00D+00  4.54D-02  2.54D+00    1.27751D-01
         9    4.63375D-02  0.00D+00  4.63D-02  2.60D+00    1.46002D-01

 ** RSPCTL MICROITERATION NUMBER    3

       No.  Residual tot.,    conf., and orb.    Bnorm      Frequency 
      ----------------------------------------------------------------
         1    6.83433D-03  0.00D+00  6.83D-03  2.37D+00    0.00000D+00
         2    6.84303D-03  0.00D+00  6.84D-03  2.38D+00    1.82502D-02
         3    6.86917D-03  0.00D+00  6.87D-03  2.39D+00    3.65004D-02
         4    6.91290D-03  0.00D+00  6.91D-03  2.40D+00    5.47506D-02
         5    6.97447D-03  0.00D+00  6.97D-03  2.43D+00    7.30008D-02
         6    7.05424D-03  0.00D+00  7.05D-03  2.46D+00    9.12509D-02
         7    7.15262D-03  0.00D+00  7.15D-03  2.50D+00    1.09501D-01
         8    7.27016D-03  0.00D+00  7.27D-03  2.54D+00    1.27751D-01
         9    7.40747D-03  0.00D+00  7.41D-03  2.60D+00    1.46002D-01

 ** RSPCTL MICROITERATION NUMBER    4

       No.  Residual tot.,    conf., and orb.    Bnorm      Frequency 
      ----------------------------------------------------------------
         1    1.98415D-04  0.00D+00  1.98D-04  2.37D+00    0.00000D+00
         2    1.98733D-04  0.00D+00  1.99D-04  2.38D+00    1.82502D-02
         3    1.99681D-04  0.00D+00  2.00D-04  2.39D+00    3.65004D-02
         4    2.01249D-04  0.00D+00  2.01D-04  2.40D+00    5.47506D-02
         5    2.03418D-04  0.00D+00  2.03D-04  2.43D+00    7.30008D-02
         6    2.06159D-04  0.00D+00  2.06D-04  2.46D+00    9.12509D-02
         7    2.09429D-04  0.00D+00  2.09D-04  2.50D+00    1.09501D-01
         8    2.13169D-04  0.00D+00  2.13D-04  2.54D+00    1.27751D-01
         9    2.17302D-04  0.00D+00  2.17D-04  2.60D+00    1.46002D-01

 *** THE REQUESTED    9 SOLUTION VECTORS CONVERGED

 Convergence of RSP solution vectors, threshold = 1.00D-03
 ---------------------------------------------------------------
 (dimension of paired reduced space:   70)
 RSP solution vector no.    1; norm of residual   8.36D-05
 RSP solution vector no.    2; norm of residual   8.36D-05
 RSP solution vector no.    3; norm of residual   8.36D-05
 RSP solution vector no.    4; norm of residual   8.37D-05
 RSP solution vector no.    5; norm of residual   8.38D-05
 RSP solution vector no.    6; norm of residual   8.38D-05
 RSP solution vector no.    7; norm of residual   8.39D-05
 RSP solution vector no.    8; norm of residual   8.38D-05
 RSP solution vector no.    9; norm of residual   8.36D-05

 *** RSPCTL MICROITERATIONS CONVERGED


           Final output of second order properties from linear response
           ------------------------------------------------------------


@ Spin symmetry of operators: singlet

 Note that minus the linear response function: - << A; B >>(omega) is printed.
 The results are of quadratic accuracy using Sellers formula.

@ FREQUENCY INDEPENDENT SECOND ORDER PROPERTIES

@ -<< YDIPLEN  ; YDIPLEN  >> =  9.771449143419E+00

@ FREQUENCY DEPENDENT SECOND ORDER PROPERTIES WITH FREQUENCY :

@    a.u.:  1.8250188D-02
@    cm-1:  4.0054531D+03
@    eV  :  4.9661286D-01
@  kJ/mol:  4.7915860D+01
@    nm  :  2.4965964D+03

@ -<< YDIPLEN  ; YDIPLEN  >> =  9.778114957369E+00

@ FREQUENCY DEPENDENT SECOND ORDER PROPERTIES WITH FREQUENCY :

@    a.u.:  3.6500375D-02
@    cm-1:  8.0109063D+03
@    eV  :  9.9322573D-01
@  kJ/mol:  9.5831720D+01
@    nm  :  1.2482982D+03

@ -<< YDIPLEN  ; YDIPLEN  >> =  9.798186244433E+00

@ FREQUENCY DEPENDENT SECOND ORDER PROPERTIES WITH FREQUENCY :

@    a.u.:  5.4750563D-02
@    cm-1:  1.2016359D+04
@    eV  :  1.4898386D+00
@  kJ/mol:  1.4374758D+02
@    nm  :  8.3219881D+02

@ -<< YDIPLEN  ; YDIPLEN  >> =  9.831886906584E+00

@ FREQUENCY DEPENDENT SECOND ORDER PROPERTIES WITH FREQUENCY :

@    a.u.:  7.3000750D-02
@    cm-1:  1.6021813D+04
@    eV  :  1.9864515D+00
@  kJ/mol:  1.9166344D+02
@    nm  :  6.2414911D+02

@ -<< YDIPLEN  ; YDIPLEN  >> =  9.879598156092E+00

@ FREQUENCY DEPENDENT SECOND ORDER PROPERTIES WITH FREQUENCY :

@    a.u.:  9.1250938D-02
@    cm-1:  2.0027266D+04
@    eV  :  2.4830643D+00
@  kJ/mol:  2.3957930D+02
@    nm  :  4.9931929D+02

@ -<< YDIPLEN  ; YDIPLEN  >> =  9.941871137159E+00

@ FREQUENCY DEPENDENT SECOND ORDER PROPERTIES WITH FREQUENCY :

@    a.u.:  1.0950113D-01
@    cm-1:  2.4032719D+04
@    eV  :  2.9796772D+00
@  kJ/mol:  2.8749516D+02
@    nm  :  4.1609940D+02

@ -<< YDIPLEN  ; YDIPLEN  >> =  1.001944577799E+01

@ FREQUENCY DEPENDENT SECOND ORDER PROPERTIES WITH FREQUENCY :

@    a.u.:  1.2775131D-01
@    cm-1:  2.8038172D+04
@    eV  :  3.4762900D+00
@  kJ/mol:  3.3541102D+02
@    nm  :  3.5665663D+02

@ -<< YDIPLEN  ; YDIPLEN  >> =  1.011327721965E+01

@ FREQUENCY DEPENDENT SECOND ORDER PROPERTIES WITH FREQUENCY :

@    a.u.:  1.4600150D-01
@    cm-1:  3.2043625D+04
@    eV  :  3.9729029D+00
@  kJ/mol:  3.8332688D+02
@    nm  :  3.1207455D+02

@ -<< YDIPLEN  ; YDIPLEN  >> =  1.022457182154E+01


 Time used in linear response calculation is      0.45 CPU seconds for symmetry 3
 ----------------------------------------------------------------
 ----- Linear response calculation
 ----- Symmetry of excitation/property operator(s)    5  ( B1u)
 ----------------------------------------------------------------

 Number of excitations of this symmetry            0
 Number of response properties of this symmetry    1
 Number of C6/C8 properties of this symmetry       0


 Perturbation symmetry.     KSYMOP:           5
 Perturbation spin symmetry.TRPLET:           F
 Orbital variables.         KZWOPT:          89
 Configuration variables.   KZCONF:           0
 Total number of variables. KZVAR :          89


 RSPLR -- linear response calculation for symmetry 5  ( B1u)
 RSPLR -- operator label : ZDIPLEN 
 RSPLR -- operator spin  :   0
 RSPLR -- frequencies    :     0.000000  0.018250  0.036500  0.054751  0.073001
                               0.091251  0.109501  0.127751  0.146002



 ---  SOLVING SETS OF LINEAR EQUATIONS FOR LINEAR RESPONSE PROPERTIES ---

 Operator symmetry = 5  ( B1u); triplet =   F


 ** RSPCTL MICROITERATION NUMBER    1

       No.  Residual tot.,    conf., and orb.    Bnorm      Frequency 
      ----------------------------------------------------------------
         1    3.20073D+00  0.00D+00  3.20D+00  2.33D+00    0.00000D+00
         2    3.20314D+00  0.00D+00  3.20D+00  2.33D+00    1.82502D-02
         3    3.21038D+00  0.00D+00  3.21D+00  2.34D+00    3.65004D-02
         4    3.22255D+00  0.00D+00  3.22D+00  2.36D+00    5.47506D-02
         5    3.23976D+00  0.00D+00  3.24D+00  2.39D+00    7.30008D-02
         6    3.26220D+00  0.00D+00  3.26D+00  2.43D+00    9.12509D-02
         7    3.29013D+00  0.00D+00  3.29D+00  2.47D+00    1.09501D-01
         8    3.32387D+00  0.00D+00  3.32D+00  2.52D+00    1.27751D-01
         9    3.36381D+00  0.00D+00  3.36D+00  2.59D+00    1.46002D-01

 ** RSPCTL MICROITERATION NUMBER    2

       No.  Residual tot.,    conf., and orb.    Bnorm      Frequency 
      ----------------------------------------------------------------
         1    3.55294D-01  0.00D+00  3.55D-01  3.11D+00    0.00000D+00
         2    3.55830D-01  0.00D+00  3.56D-01  3.12D+00    1.82502D-02
         3    3.57446D-01  0.00D+00  3.57D-01  3.14D+00    3.65004D-02
         4    3.60164D-01  0.00D+00  3.60D-01  3.17D+00    5.47506D-02
         5    3.64023D-01  0.00D+00  3.64D-01  3.21D+00    7.30008D-02
         6    3.69081D-01  0.00D+00  3.69D-01  3.26D+00    9.12509D-02
         7    3.75414D-01  0.00D+00  3.75D-01  3.33D+00    1.09501D-01
         8    3.83119D-01  0.00D+00  3.83D-01  3.41D+00    1.27751D-01
         9    3.92325D-01  0.00D+00  3.92D-01  3.51D+00    1.46002D-01

 ** RSPCTL MICROITERATION NUMBER    3

       No.  Residual tot.,    conf., and orb.    Bnorm      Frequency 
      ----------------------------------------------------------------
         1    4.06550D-02  0.00D+00  4.07D-02  3.12D+00    0.00000D+00
         2    4.07628D-02  0.00D+00  4.08D-02  3.12D+00    1.82502D-02
         3    4.10883D-02  0.00D+00  4.11D-02  3.14D+00    3.65004D-02
         4    4.16379D-02  0.00D+00  4.16D-02  3.17D+00    5.47506D-02
         5    4.24227D-02  0.00D+00  4.24D-02  3.21D+00    7.30008D-02
         6    4.34587D-02  0.00D+00  4.35D-02  3.27D+00    9.12509D-02
         7    4.47672D-02  0.00D+00  4.48D-02  3.34D+00    1.09501D-01
         8    4.63762D-02  0.00D+00  4.64D-02  3.42D+00    1.27751D-01
         9    4.83209D-02  0.00D+00  4.83D-02  3.52D+00    1.46002D-01

 ** RSPCTL MICROITERATION NUMBER    4

       No.  Residual tot.,    conf., and orb.    Bnorm      Frequency 
      ----------------------------------------------------------------
         1    2.10623D-03  0.00D+00  2.11D-03  3.12D+00    0.00000D+00
         2    2.11397D-03  0.00D+00  2.11D-03  3.12D+00    1.82502D-02
         3    2.13737D-03  0.00D+00  2.14D-03  3.14D+00    3.65004D-02
         4    2.17694D-03  0.00D+00  2.18D-03  3.17D+00    5.47506D-02
         5    2.23358D-03  0.00D+00  2.23D-03  3.21D+00    7.30008D-02
         6    2.30860D-03  0.00D+00  2.31D-03  3.27D+00    9.12509D-02
         7    2.40379D-03  0.00D+00  2.40D-03  3.34D+00    1.09501D-01
         8    2.52152D-03  0.00D+00  2.52D-03  3.42D+00    1.27751D-01
         9    2.66488D-03  0.00D+00  2.66D-03  3.52D+00    1.46002D-01

 *** THE REQUESTED    9 SOLUTION VECTORS CONVERGED

 Convergence of RSP solution vectors, threshold = 1.00D-03
 ---------------------------------------------------------------
 (dimension of paired reduced space:   72)
 RSP solution vector no.    1; norm of residual   6.76D-04
 RSP solution vector no.    2; norm of residual   6.77D-04
 RSP solution vector no.    3; norm of residual   6.80D-04
 RSP solution vector no.    4; norm of residual   6.87D-04
 RSP solution vector no.    5; norm of residual   6.95D-04
 RSP solution vector no.    6; norm of residual   7.06D-04
 RSP solution vector no.    7; norm of residual   7.20D-04
 RSP solution vector no.    8; norm of residual   7.37D-04
 RSP solution vector no.    9; norm of residual   7.57D-04

 *** RSPCTL MICROITERATIONS CONVERGED


           Final output of second order properties from linear response
           ------------------------------------------------------------


@ Spin symmetry of operators: singlet

 Note that minus the linear response function: - << A; B >>(omega) is printed.
 The results are of quadratic accuracy using Sellers formula.

@ FREQUENCY INDEPENDENT SECOND ORDER PROPERTIES

@ -<< ZDIPLEN  ; ZDIPLEN  >> =  1.501973649980E+01

@ FREQUENCY DEPENDENT SECOND ORDER PROPERTIES WITH FREQUENCY :

@    a.u.:  1.8250188D-02
@    cm-1:  4.0054531D+03
@    eV  :  4.9661286D-01
@  kJ/mol:  4.7915860D+01
@    nm  :  2.4965964D+03

@ -<< ZDIPLEN  ; ZDIPLEN  >> =  1.503356076831E+01

@ FREQUENCY DEPENDENT SECOND ORDER PROPERTIES WITH FREQUENCY :

@    a.u.:  3.6500375D-02
@    cm-1:  8.0109063D+03
@    eV  :  9.9322573D-01
@  kJ/mol:  9.5831720D+01
@    nm  :  1.2482982D+03

@ -<< ZDIPLEN  ; ZDIPLEN  >> =  1.507521915369E+01

@ FREQUENCY DEPENDENT SECOND ORDER PROPERTIES WITH FREQUENCY :

@    a.u.:  5.4750563D-02
@    cm-1:  1.2016359D+04
@    eV  :  1.4898386D+00
@  kJ/mol:  1.4374758D+02
@    nm  :  8.3219881D+02

@ -<< ZDIPLEN  ; ZDIPLEN  >> =  1.514527508402E+01

@ FREQUENCY DEPENDENT SECOND ORDER PROPERTIES WITH FREQUENCY :

@    a.u.:  7.3000750D-02
@    cm-1:  1.6021813D+04
@    eV  :  1.9864515D+00
@  kJ/mol:  1.9166344D+02
@    nm  :  6.2414911D+02

@ -<< ZDIPLEN  ; ZDIPLEN  >> =  1.524469036654E+01

@ FREQUENCY DEPENDENT SECOND ORDER PROPERTIES WITH FREQUENCY :

@    a.u.:  9.1250938D-02
@    cm-1:  2.0027266D+04
@    eV  :  2.4830643D+00
@  kJ/mol:  2.3957930D+02
@    nm  :  4.9931929D+02

@ -<< ZDIPLEN  ; ZDIPLEN  >> =  1.537486101131E+01

@ FREQUENCY DEPENDENT SECOND ORDER PROPERTIES WITH FREQUENCY :

@    a.u.:  1.0950113D-01
@    cm-1:  2.4032719D+04
@    eV  :  2.9796772D+00
@  kJ/mol:  2.8749516D+02
@    nm  :  4.1609940D+02

@ -<< ZDIPLEN  ; ZDIPLEN  >> =  1.553767095098E+01

@ FREQUENCY DEPENDENT SECOND ORDER PROPERTIES WITH FREQUENCY :

@    a.u.:  1.2775131D-01
@    cm-1:  2.8038172D+04
@    eV  :  3.4762900D+00
@  kJ/mol:  3.3541102D+02
@    nm  :  3.5665663D+02

@ -<< ZDIPLEN  ; ZDIPLEN  >> =  1.573556772849E+01

@ FREQUENCY DEPENDENT SECOND ORDER PROPERTIES WITH FREQUENCY :

@    a.u.:  1.4600150D-01
@    cm-1:  3.2043625D+04
@    eV  :  3.9729029D+00
@  kJ/mol:  3.8332688D+02
@    nm  :  3.1207455D+02

@ -<< ZDIPLEN  ; ZDIPLEN  >> =  1.597166620919E+01


 Time used in linear response calculation is      0.46 CPU seconds for symmetry 5

  Total CPU  time used in RESPONSE:   1.41 seconds
  Total wall time used in RESPONSE:   1.43 seconds


                   .-------------------------------------------.
                   | End of Dynamic Property Section (RESPONS) |
                   `-------------------------------------------'

  Total CPU  time used in DALTON:   1.85 seconds
  Total wall time used in DALTON:   1.88 seconds

 
     Date and time (Linux)  : Wed Jan 11 15:39:24 2023
     Host name              : cn021                                   
