

     ************************************************************************
     *************** Dalton - An Electronic Structure Program ***************
     ************************************************************************

    This is output from DALTON release Dalton2020.0 (2020)
         ( Web site: http://daltonprogram.org )

   ----------------------------------------------------------------------------

    NOTE:
     
    Dalton is an experimental code for the evaluation of molecular
    properties using (MC)SCF, DFT, CI, and CC wave functions.
    The authors accept no responsibility for the performance of
    the code or for the correctness of the results.
     
    The code (in whole or part) is provided under a licence and
    is not to be reproduced for further distribution without
    the written permission of the authors or their representatives.
     
    See the home page "http://daltonprogram.org" for further information.
     
    If results obtained with this code are published,
    the appropriate citations would be both of:
     
       K. Aidas, C. Angeli, K. L. Bak, V. Bakken, R. Bast,
       L. Boman, O. Christiansen, R. Cimiraglia, S. Coriani,
       P. Dahle, E. K. Dalskov, U. Ekstroem,
       T. Enevoldsen, J. J. Eriksen, P. Ettenhuber, B. Fernandez,
       L. Ferrighi, H. Fliegl, L. Frediani, K. Hald, A. Halkier,
       C. Haettig, H. Heiberg, T. Helgaker, A. C. Hennum,
       H. Hettema, E. Hjertenaes, S. Hoest, I.-M. Hoeyvik,
       M. F. Iozzi, B. Jansik, H. J. Aa. Jensen, D. Jonsson,
       P. Joergensen, J. Kauczor, S. Kirpekar,
       T. Kjaergaard, W. Klopper, S. Knecht, R. Kobayashi, H. Koch,
       J. Kongsted, A. Krapp, K. Kristensen, A. Ligabue,
       O. B. Lutnaes, J. I. Melo, K. V. Mikkelsen, R. H. Myhre,
       C. Neiss, C. B. Nielsen, P. Norman, J. Olsen,
       J. M. H. Olsen, A. Osted, M. J. Packer, F. Pawlowski,
       T. B. Pedersen, P. F. Provasi, S. Reine, Z. Rinkevicius,
       T. A. Ruden, K. Ruud, V. Rybkin, P. Salek, C. C. M. Samson,
       A. Sanchez de Meras, T. Saue, S. P. A. Sauer,
       B. Schimmelpfennig, K. Sneskov, A. H. Steindal,
       K. O. Sylvester-Hvid, P. R. Taylor, A. M. Teale,
       E. I. Tellgren, D. P. Tew, A. J. Thorvaldsen, L. Thoegersen,
       O. Vahtras, M. A. Watson, D. J. D. Wilson, M. Ziolkowski
       and H. Agren,
       "The Dalton quantum chemistry program system",
       WIREs Comput. Mol. Sci. 2014, 4:269–284 (doi: 10.1002/wcms.1172)
     
    and
     
       Dalton, a molecular electronic structure program,
       Release Dalton2020.0 (2020), see http://daltonprogram.org
   ----------------------------------------------------------------------------

    Authors in alphabetical order (Major contribution(s) in parenthesis):

  Kestutis Aidas,           Vilnius University,           Lithuania   (QM/MM)
  Celestino Angeli,         University of Ferrara,        Italy       (NEVPT2)
  Keld L. Bak,              UNI-C,                        Denmark     (AOSOPPA, non-adiabatic coupling, magnetic properties)
  Vebjoern Bakken,          University of Oslo,           Norway      (DALTON; geometry optimizer, symmetry detection)
  Radovan Bast,             UiT The Arctic U. of Norway,  Norway      (DALTON installation and execution frameworks)
  Pablo Baudin,             University of Valencia,       Spain       (Cholesky excitation energies)
  Linus Boman,              NTNU,                         Norway      (Cholesky decomposition and subsystems)
  Bruno N. Cabral Tenorio,  Technical Univ. of Denmark,   Denmark     (Lanczos-based CC methods)
  Ove Christiansen,         Aarhus University,            Denmark     (CC module)
  Renzo Cimiraglia,         University of Ferrara,        Italy       (NEVPT2)
  Sonia Coriani,            Technical Univ. of Denmark,   Denmark     (CC and RESPONS modules)
  Janusz Cukras,            University of Warsaw,         Poland      (MChD in RESPONS)
  Paal Dahle,               University of Oslo,           Norway      (Parallelization)
  Erik K. Dalskov,          UNI-C,                        Denmark     (SOPPA)
  Thomas Enevoldsen,        Univ. of Southern Denmark,    Denmark     (SOPPA)
  Janus J. Eriksen,         Aarhus University,            Denmark     (Polarizable embedding, TDA)
  Rasmus Faber,             Technical Univ. of Denmark,   Denmark     (Vib.avg. NMR w. SOPPA, parallel AO-SOPPA, CVS-CC and EOMCC)
  Tobias Fahleson,          KTH Stockholm,                Sweden      (Damped cubic response)
  Berta Fernandez,          U. of Santiago de Compostela, Spain       (Doublet spin, ESR in RESPONS)
  Lara Ferrighi,            Aarhus University,            Denmark     (PCM Cubic response)
  Heike Fliegl,             University of Oslo,           Norway      (CCSD(R12))
  Luca Frediani,            UiT The Arctic U. of Norway,  Norway      (PCM)
  Emmanuel Fromager,        Univ. Strasbourg,             France      (MC-srDFT)
  Bin Gao,                  UiT The Arctic U. of Norway,  Norway      (Gen1Int library)
  Andre S. P. Gomes,        CNRS/Universite de Lille,     France      (Frozen density embedding)
  Christof Haettig,         Ruhr-University Bochum,       Germany     (CC module)
  Kasper Hald,              Aarhus University,            Denmark     (CC module)
  Asger Halkier,            Aarhus University,            Denmark     (CC module)
  Frederik Beyer Hansen,    University of Copenhagen,     Denmark     (Parallel AO-SOPPA)
  Erik D. Hedegaard,        Univ. of Southern Denmark,    Denmark     (Polarizable embedding, QM/MM, and MC-srDFT)
  Hanne Heiberg,            University of Oslo,           Norway      (Geometry analysis, selected one-electron integrals)
  Trygve Helgaker,          University of Oslo,           Norway      (DALTON; ABACUS, ERI, DFT modules, London, and much more)
  Alf Christian Hennum,     University of Oslo,           Norway      (Parity violation)
  Hinne Hettema,            University of Auckland,       New Zealand (Quadratic response in RESPONS; SIRIUS supersymmetry)
  Eirik Hjertenaes,         NTNU,                         Norway      (Cholesky decomposition)
  Pi A. B. Haase,           University of Copenhagen,     Denmark     (Triplet AO-SOPPA)
  Maria Francesca Iozzi,    University of Oslo,           Norway      (RPA)
  Christoph Jacob           TU Braunschweig               Germany     (Frozen density embedding)
  Brano Jansik              Technical Univ. of Ostrava    Czech Rep.  (DFT cubic response)
  Hans Joergen Aa. Jensen,  Univ. of Southern Denmark,    Denmark     (DALTON; SIRIUS, RESPONS, ABACUS, MC-srDFT, and much more)
  Dan Jonsson,              UiT The Arctic U. of Norway,  Norway      (Cubic response in RESPONS module)
  Poul Joergensen,          Aarhus University,            Denmark     (RESPONS, ABACUS, and CC modules)
  Maciej Kaminski,          University of Warsaw,         Poland      (CPPh in RESPONS)
  Joanna Kauczor,           Linkoeping University,        Sweden      (Complex polarization propagator (CPP) module)
  Sheela Kirpekar,          Univ. of Southern Denmark,    Denmark     (Mass-velocity & Darwin integrals)
  Erik Kjellgren,           Univ. of Southern Denmark,    Denmark     (MC-srDFT)
  Wim Klopper,              KIT Karlsruhe,                Germany     (R12 code in CC, SIRIUS, and ABACUS modules)
  Stefan Knecht,            ETH Zurich,                   Switzerland (Parallel CI and MCSCF, MC-srDFT)
  Rika Kobayashi,           Australian National Univ.,    Australia   (DIIS in CC, London in MCSCF)
  Henrik Koch,              NTNU,                         Norway      (CC module, Cholesky decomposition)
  Jacob Kongsted,           Univ. of Southern Denmark,    Denmark     (Polarizable embedding, polarizable density embedding, QM/MM)
  Andrea Ligabue,           University of Modena,         Italy       (CTOCD, AOSOPPA)
  Nanna H. List             Univ. of Southern Denmark,    Denmark     (Polarizable embedding)
  Ola B. Lutnaes,           University of Oslo,           Norway      (DFT Hessian)
  Juan I. Melo,             University of Buenos Aires,   Argentina   (LRESC, Relativistic Effects on NMR Shieldings)
  Kurt V. Mikkelsen,        University of Copenhagen,     Denmark     (MC-SCRF and QM/MM)
  Rolf H. Myhre,            NTNU,                         Norway      (Subsystems and CC3)
  Christian Neiss,          Univ. Erlangen-Nuernberg,     Germany     (CCSD(R12))
  Christian B. Nielsen,     University of Copenhagen,     Denmark     (QM/MM)
  Patrick Norman,           KTH Stockholm,                Sweden      (Cubic response and complex frequency response in RESPONS)
  Jeppe Olsen,              Aarhus University,            Denmark     (SIRIUS CI/density modules)
  Jogvan Magnus H. Olsen,   Aarhus University,            Denmark     (Polarizable embedding and polarizable density embedding)
  Anders Osted,             Copenhagen University,        Denmark     (QM/MM)
  Martin J. Packer,         University of Sheffield,      UK          (SOPPA)
  Filip Pawlowski,          Kazimierz Wielki University,  Poland      (CC3)
  Morten N. Pedersen,       Univ. of Southern Denmark,    Denmark     (Polarizable embedding)
  Thomas B. Pedersen,       University of Oslo,           Norway      (Cholesky decomposition)
  Patricio F. Provasi,      University of Northeastern,   Argentina   (Analysis of coupling constants in localized orbitals)
  Peter Reinholdt,          Univ. of Southern Denmark,    Denmark     (Polarizable embedding and polarizable density embedding)
  Zilvinas Rinkevicius,     KTH Stockholm,                Sweden      (open-shell DFT, ESR)
  Elias Rudberg,            KTH Stockholm,                Sweden      (DFT grid and basis info)
  Torgeir A. Ruden,         University of Oslo,           Norway      (Numerical derivatives in ABACUS)
  Kenneth Ruud,             UiT The Arctic U. of Norway,  Norway      (DALTON; ABACUS magnetic properties and much more)
  Pawel Salek,              KTH Stockholm,                Sweden      (DALTON; DFT code)
  Claire C. M. Samson       University of Karlsruhe       Germany     (Boys localization, r12 integrals in ERI)
  Alfredo Sanchez de Meras, University of Valencia,       Spain       (CC module, Cholesky decomposition)
  Trond Saue,               Paul Sabatier University,     France      (direct Fock matrix construction)
  Stephan P. A. Sauer,      University of Copenhagen,     Denmark     (SOPPA(CCSD), SOPPA prop., AOSOPPA, vibrational g-factors)
  Bernd Schimmelpfennig,    Forschungszentrum Karlsruhe,  Germany     (AMFI module)
  Anna K. Schnack-Petersen, University of Copenhagen,     Denmark     (RPA(D) and HRPA(D) properties in AOSOPPA)
  Kristian Sneskov,         Aarhus University,            Denmark     (Polarizable embedding, QM/MM)
  Arnfinn H. Steindal,      UiT The Arctic U. of Norway,  Norway      (parallel QM/MM, polarizable embedding)
  Casper Steinmann,         Aalborg University,           Denmark     (QFIT, polarizable embedding)
  K. O. Sylvester-Hvid,     University of Copenhagen,     Denmark     (MC-SCRF)
  Peter R. Taylor,          VLSCI/Univ. of Melbourne,     Australia   (Symmetry handling ABACUS, integral transformation)
  Andrew M. Teale,          University of Nottingham,     England     (DFT-AC, DFT-D)
  David P. Tew,             University of Bristol,        England     (CCSD(R12))
  Julien Toulouse,          Sorbonne Univ.,               France      (MC-srDFT)
  Olav Vahtras,             KTH Stockholm,                Sweden      (Triplet response, spin-orbit, ESR, TDDFT, open-shell DFT)
  Lucas Visscher,           Vrije Universiteit Amsterdam, Netherlands (Frozen density embedding)
  David J. Wilson,          La Trobe University,          Australia   (DFT Hessian and DFT magnetizabilities)
  Hans Agren,               KTH Stockholm,                Sweden      (SIRIUS module, RESPONS, MC-SCRF solvation)
 --------------------------------------------------------------------------------

     Date and time (Linux)  : Wed Jan 11 15:39:02 2023
     Host name              : cn017                                   

 * Work memory size             :    64000000 =  488.28 megabytes.

 * Directories for basis set searches:
   1) /gpfs/projects/rjh/adrian/fd_compare/dalton/hf/Be/dipole
   2) /gpfs/projects/rjh/adrian/dalton/build/basis


Compilation information
-----------------------

 Who compiled             | ahurtado
 Host                     | sn-mem
 System                   | Linux-3.10.0-1160.24.1.el7.x86_64
 CMake generator          | Unix Makefiles
 Processor                | x86_64
 64-bit integers          | OFF
 MPI                      | ON
 Fortran compiler         | /gpfs/software/intel/oneAPI/2021_4/mpi/2021.4.0/bi
                          | n/mpif90
 Fortran compiler version | GNU Fortran (GCC) 11.2.0
 C compiler               | /gpfs/software/intel/oneAPI/2021_4/mpi/2021.4.0/bi
                          | n/mpicc
 C compiler version       | gcc (GCC) 11.2.0
 C++ compiler             | /gpfs/software/intel/oneAPI/2021_4/mpi/2021.4.0/bi
                          | n/mpicxx
 C++ compiler version     | unknown
 BLAS                     | /gpfs/software/intel/oneAPI/2021_4/mkl/2021.4.0/li
                          | b/intel64/libmkl_gf_lp64.so;/gpfs/software/intel/o
                          | neAPI/2021_4/mkl/2021.4.0/lib/intel64/libmkl_seque
                          | ntial.so;/gpfs/software/intel/oneAPI/2021_4/mkl/20
                          | 21.4.0/lib/intel64/libmkl_core.so;/usr/lib64/libpt
                          | hread.so;/usr/lib64/libm.so
 LAPACK                   | /gpfs/software/intel/oneAPI/2021_4/mkl/2021.4.0/li
                          | b/intel64/libmkl_lapack95_lp64.a;/gpfs/software/in
                          | tel/oneAPI/2021_4/mkl/2021.4.0/lib/intel64/libmkl_
                          | gf_lp64.so
 Static linking           | OFF
 Last Git revision        | 66052b3af5ea7225e31178bf9a8b031913c72190
 Git branch               | (HEAD detached at Dalton2020.0)
 Configuration time       | 2023-01-11 13:33:37.731835

 * MPI parallel run using 20 processes.


   Content of the .dal input file
 ----------------------------------

**DALTON INPUT
.RUN RESPONSE
.DIRECT
**WAVE FUNCTIONS
.HF
**RESPONSE
*LINEAR
.DIPLEN
.FREQUENCIES
9
0.0 0.0111163125 0.022232625 0.033348937499999995 0.04446525 0.0555815625 0.06669787499999999 0.0778
**END OF DALTON INPUT


   Content of the .mol file
 ----------------------------

BASIS
d-aug-cc-pCVTZ
blah
blah
Atomtype=1 Atomic
Charge=4 Atoms=1
Be_a 0.000000000000 0.000000000000 0.000000000000


       *******************************************************************
       *********** Output from DALTON general input processing ***********
       *******************************************************************

 --------------------------------------------------------------------------------
   Overall default print level:    0
   Print level for DALTON.STAT:    1

    Parallel calculation using MPI
    AO-direct calculation (in sections where implemented)
    HERMIT 1- and 2-electron integral sections will be executed
    "Old" integral transformation used (limited to max 255 basis functions)
    Wave function sections will be executed (SIRIUS module)
    Dynamic molecular response properties section will be executed (RESPONSE module)
 --------------------------------------------------------------------------------


   ****************************************************************************
   *************** Output of molecule and basis set information ***************
   ****************************************************************************


    The two title cards from your ".mol" input:
    ------------------------------------------------------------------------
 1: blah                                                                    
 2: blah                                                                    
    ------------------------------------------------------------------------

  Atomic type no.    1
  --------------------
  Nuclear charge:   4.00000
  Number of symmetry independent centers:    1
  Number of basis sets to read;    2
  Basis set file used for this atomic type with Z =   4 :
     "/gpfs/projects/rjh/adrian/dalton/build/basis/aug-cc-pCVTZ"


                      SYMADD: Requested addition of symmetry
                      --------------------------------------

 Symmetry test threshold:  5.00E-06

@   The molecule is centered at center of mass and rotated
@   so principal axes of inertia are along coordinate axes.

 Symmetry class found: D(oo,h)        

 Symmetry Independent Centres             
 ----------------------------
Be_a   4 :      0.00000000     0.00000000     0.00000000  Isotope  1

 The following symmetry elements were found:   X  Y  Z  


                         SYMGRP: Point group information
                         -------------------------------

@    Full point group is: D(oo,h)        
@    Represented as:      D2h

@  * The irrep name for each symmetry:    1: Ag     2: B3u    3: B2u    4: B1g    5: B1u    6: B2g    7: B3g    8: Au 


   * The point group was generated by:

      Reflection in the yz-plane
      Reflection in the xz-plane
      Reflection in the xy-plane

   * Group multiplication table

        |  E   C2z  C2y  C2x   i   Oxy  Oxz  Oyz
   -----+----------------------------------------
     E  |  E   C2z  C2y  C2x   i   Oxy  Oxz  Oyz
    C2z | C2z   E   C2x  C2y  Oxy   i   Oyz  Oxz
    C2y | C2y  C2x   E   C2z  Oxz  Oyz   i   Oxy
    C2x | C2x  C2y  C2z   E   Oyz  Oxz  Oxy   i 
     i  |  i   Oxy  Oxz  Oyz   E   C2z  C2y  C2x
    Oxy | Oxy   i   Oyz  Oxz  C2z   E   C2x  C2y
    Oxz | Oxz  Oyz   i   Oxy  C2y  C2x   E   C2z
    Oyz | Oyz  Oxz  Oxy   i   C2x  C2y  C2z   E 

   * Character table

        |  E   C2z  C2y  C2x   i   Oxy  Oxz  Oyz
   -----+----------------------------------------
    Ag  |   1    1    1    1    1    1    1    1
    B3u |   1   -1   -1    1   -1    1    1   -1
    B2u |   1   -1    1   -1   -1    1   -1    1
    B1g |   1    1   -1   -1    1    1   -1   -1
    B1u |   1    1   -1   -1   -1   -1    1    1
    B2g |   1   -1    1   -1    1   -1    1   -1
    B3g |   1   -1   -1    1    1   -1   -1    1
    Au  |   1    1    1    1   -1   -1   -1   -1

   * Direct product table

        | Ag   B3u  B2u  B1g  B1u  B2g  B3g  Au 
   -----+----------------------------------------
    Ag  | Ag   B3u  B2u  B1g  B1u  B2g  B3g  Au 
    B3u | B3u  Ag   B1g  B2u  B2g  B1u  Au   B3g
    B2u | B2u  B1g  Ag   B3u  B3g  Au   B1u  B2g
    B1g | B1g  B2u  B3u  Ag   Au   B3g  B2g  B1u
    B1u | B1u  B2g  B3g  Au   Ag   B3u  B2u  B1g
    B2g | B2g  B1u  Au   B3g  B3u  Ag   B1g  B2u
    B3g | B3g  Au   B1u  B2g  B2u  B1g  Ag   B3u
    Au  | Au   B3g  B2g  B1u  B1g  B2u  B3u  Ag 


                                 Isotopic Masses
                                 ---------------

                           Be_a        9.012183

                       Total mass:     9.012183 amu
                       Natural abundance: 100.000 %

 Center-of-mass coordinates (a.u.):    0.000000    0.000000    0.000000
 Center-of-mass coordinates (Angs):    0.000000    0.000000    0.000000


  Atoms and basis sets
  --------------------

  Number of atom types :    1
  Total number of atoms:    1

  Basis set used is "d-aug-cc-pCVTZ" from the basis set library.

  label    atoms   charge   prim   cont     basis
  ----------------------------------------------------------------------
  Be          1    4.0000    88    75      [15s9p5d3f|8s7p5d3f]                               
  ----------------------------------------------------------------------
  total:      1    4.0000    88    75
  ----------------------------------------------------------------------
  Spherical harmonic basis used.

  Threshold for neglecting AO integrals:  1.00D-12


  Cartesian Coordinates (a.u.)
  ----------------------------

  Total number of coordinates:    3
  Be_a    :     1  x   0.0000000000    2  y   0.0000000000    3  z   0.0000000000


  Symmetry Coordinates
  --------------------

  Number of coordinates in each symmetry:     0    1    1    0    1    0    0    0

  Symmetry  B3u ( 2)

    1   Be_a  x    1

  Symmetry  B2u ( 3)

    2   Be_a  y    2

  Symmetry  B1u ( 5)

    3   Be_a  z    3


@ This is an atomic calculation.


  Symmetry Orbitals
  -----------------

  Number of orbitals in each symmetry:          18   13   13    5   13    5    5    3


  Symmetry  Ag ( 1)

    1     Be_a     1s         1
    2     Be_a     1s         2
    3     Be_a     1s         3
    4     Be_a     1s         4
    5     Be_a     1s         5
    6     Be_a     1s         6
    7     Be_a     1s         7
    8     Be_a     1s         8
    9     Be_a     3d0       32
   10     Be_a     3d2+      34
   11     Be_a     3d0       37
   12     Be_a     3d2+      39
   13     Be_a     3d0       42
   14     Be_a     3d2+      44
   15     Be_a     3d0       47
   16     Be_a     3d2+      49
   17     Be_a     3d0       52
   18     Be_a     3d2+      54


  Symmetry  B3u( 2)

   19     Be_a     2px        9
   20     Be_a     2px       12
   21     Be_a     2px       15
   22     Be_a     2px       18
   23     Be_a     2px       21
   24     Be_a     2px       24
   25     Be_a     2px       27
   26     Be_a     4f1+      59
   27     Be_a     4f3+      61
   28     Be_a     4f1+      66
   29     Be_a     4f3+      68
   30     Be_a     4f1+      73
   31     Be_a     4f3+      75


  Symmetry  B2u( 3)

   32     Be_a     2py       10
   33     Be_a     2py       13
   34     Be_a     2py       16
   35     Be_a     2py       19
   36     Be_a     2py       22
   37     Be_a     2py       25
   38     Be_a     2py       28
   39     Be_a     4f3-      55
   40     Be_a     4f1-      57
   41     Be_a     4f3-      62
   42     Be_a     4f1-      64
   43     Be_a     4f3-      69
   44     Be_a     4f1-      71


  Symmetry  B1g( 4)

   45     Be_a     3d2-      30
   46     Be_a     3d2-      35
   47     Be_a     3d2-      40
   48     Be_a     3d2-      45
   49     Be_a     3d2-      50


  Symmetry  B1u( 5)

   50     Be_a     2pz       11
   51     Be_a     2pz       14
   52     Be_a     2pz       17
   53     Be_a     2pz       20
   54     Be_a     2pz       23
   55     Be_a     2pz       26
   56     Be_a     2pz       29
   57     Be_a     4f0       58
   58     Be_a     4f2+      60
   59     Be_a     4f0       65
   60     Be_a     4f2+      67
   61     Be_a     4f0       72
   62     Be_a     4f2+      74


  Symmetry  B2g( 6)

   63     Be_a     3d1+      33
   64     Be_a     3d1+      38
   65     Be_a     3d1+      43
   66     Be_a     3d1+      48
   67     Be_a     3d1+      53


  Symmetry  B3g( 7)

   68     Be_a     3d1-      31
   69     Be_a     3d1-      36
   70     Be_a     3d1-      41
   71     Be_a     3d1-      46
   72     Be_a     3d1-      51


  Symmetry  Au ( 8)

   73     Be_a     4f2-      56
   74     Be_a     4f2-      63
   75     Be_a     4f2-      70

  Symmetries of electric field:  B3u(2)  B2u(3)  B1u(5)

  Symmetries of magnetic field:  B3g(7)  B2g(6)  B1g(4)


                     .---------------------------------------.
                     | Starting in Integral Section (HERMIT) |
                     `---------------------------------------'



 ***************************************************************************************
 ****************** Output from **INTEGRALS input processing (HERMIT) ******************
 ***************************************************************************************


 - Using defaults, no **INTEGRALS input found

 Default print level:        1

 Calculation of one-electron Hamiltonian integrals.

 Center of mass  (bohr):      0.000000000000      0.000000000000      0.000000000000
 Operator center (bohr):      0.000000000000      0.000000000000      0.000000000000
 Gauge origin    (bohr):      0.000000000000      0.000000000000      0.000000000000
 Dipole origin   (bohr):      0.000000000000      0.000000000000      0.000000000000


     ************************************************************************
     ************************** Output from HERINT **************************
     ************************************************************************



                      Nuclear contribution to dipole moments
                      --------------------------------------

                    All dipole components are zero by symmetry


  Total CPU  time used in HERMIT:   0.08 seconds
  Total wall time used in HERMIT:   0.08 seconds


                        .----------------------------------.
                        | End of Integral Section (HERMIT) |
                        `----------------------------------'



                   .--------------------------------------------.
                   | Starting in Wave Function Section (SIRIUS) |
                   `--------------------------------------------'


 *** Output from Huckel module :

     Using EWMO model:          T
     Using EHT  model:          F
     Number of Huckel orbitals each symmetry:    2    1    1    0    1    0    0    0

 EWMO - Energy Weighted Maximum Overlap - is a Huckel type method,
        which normally is better than Extended Huckel Theory.
 Reference: Linderberg and Ohrn, Propagators in Quantum Chemistry (Wiley, 1973)

 Huckel EWMO eigenvalues for symmetry :  1
           -4.732700      -0.309300

 Huckel EWMO eigenvalues for symmetry :  2
           -0.206000

 Huckel EWMO eigenvalues for symmetry :  3
           -0.206000

 Huckel EWMO eigenvalues for symmetry :  5
           -0.206000

 **********************************************************************
 *SIRIUS* a direct, restricted step, second order MCSCF program       *
 **********************************************************************

 
     Date and time (Linux)  : Wed Jan 11 15:39:02 2023
     Host name              : cn017                                   

 Title lines from ".mol" input file:
     blah                                                                    
     blah                                                                    

 Print level on unit LUPRI =   2 is   0
 Print level on unit LUW4  =   2 is   5

@    Restricted, closed shell Hartree-Fock calculation.

@    Time-dependent Hartree-Fock calculation (random phase approximation).
 Fock matrices are calculated directly and in parallel without use of integrals on disk.

 Initial molecular orbitals are obtained according to
 ".MOSTART EWMO  " input option

     Wave function specification
     ============================
@    Wave function type        --- HF ---
@    Number of closed shell electrons           4
@    Number of electrons in active shells       0
@    Total charge of the molecule               0

@    Spin multiplicity and 2 M_S                1         0
@    Total number of symmetries                 8 (point group: D2h)
@    Reference state symmetry                   1 (irrep name : Ag )

     Orbital specifications
     ======================
@    Abelian symmetry species          All |    1    2    3    4    5    6    7    8
@                                          |  Ag   B3u  B2u  B1g  B1u  B2g  B3g  Au 
                                       --- |  ---  ---  ---  ---  ---  ---  ---  ---
@    Total number of orbitals           75 |   18   13   13    5   13    5    5    3
@    Number of basis functions          75 |   18   13   13    5   13    5    5    3

      ** Automatic occupation of RHF orbitals **

      -- Initial occupation of symmetries is determined from extended Huckel guess.           
      -- Initial occupation of symmetries is :
@    Occupied SCF orbitals               2 |    2    0    0    0    0    0    0    0

     Maximum number of Fock   iterations      0
     Maximum number of DIIS   iterations     60
     Maximum number of QC-SCF iterations     60
     Threshold for SCF convergence     1.00D-05


 ***********************************************
 ***** DIIS acceleration of SCF iterations *****
 ***********************************************

 C1-DIIS algorithm; max error vectors =    8

 Automatic occupation of symmetries with   4 electrons.

 Iter     Total energy    Error norm  Delta(E)    SCF occupation
 -----------------------------------------------------------------------------
   1  Screening settings (-IFTHRS, JTDIIS, DIFDEN, times)   -6    1    T  2.77D-02  2.80D-02
@  1  -14.5702449614       2.23D-01  -1.46D+01     2   0   0   0   0   0   0   0
      Virial theorem: -V/T =      1.991658
@    MULPOP   Be_a   -0.00; 
   1  Level shift: doubly occupied orbital energies shifted by -2.00D-01
 -----------------------------------------------------------------------------
   2  Screening settings (-IFTHRS, JTDIIS, DIFDEN, times)  -10    2    F  6.35D-03  6.00D-03
@  2  -14.5723782267       4.02D-02  -2.13D-03     2   0   0   0   0   0   0   0
      Virial theorem: -V/T =      1.997096
@    MULPOP   Be_a    0.00; 
   2  Level shift: doubly occupied orbital energies shifted by -5.00D-02
 -----------------------------------------------------------------------------
   3  Screening settings (-IFTHRS, JTDIIS, DIFDEN, times)  -10    3    T  6.22D-03  7.00D-03
@  3  -14.5728179639       1.21D-02  -4.40D-04     2   0   0   0   0   0   0   0
      Virial theorem: -V/T =      1.999226
@    MULPOP   Be_a   -0.00; 
   3  Level shift: doubly occupied orbital energies shifted by -2.50D-02
 -----------------------------------------------------------------------------
   4  Screening settings (-IFTHRS, JTDIIS, DIFDEN, times)  -10    4    T  6.42D-03  6.00D-03
@  4  -14.5728744938       1.99D-03  -5.65D-05     2   0   0   0   0   0   0   0
      Virial theorem: -V/T =      1.999959
@    MULPOP   Be_a    0.00; 
 -----------------------------------------------------------------------------
   5  Screening settings (-IFTHRS, JTDIIS, DIFDEN, times)  -10    5    T  6.79D-03  7.00D-03
@  5  -14.5728762285       1.35D-04  -1.73D-06     2   0   0   0   0   0   0   0
      Virial theorem: -V/T =      2.000034
@    MULPOP   Be_a    0.00; 
 -----------------------------------------------------------------------------
   6  Screening settings (-IFTHRS, JTDIIS, DIFDEN, times)  -10    6    T  5.64D-03  5.00D-03
@  6  -14.5728762365       1.42D-05  -7.98D-09     2   0   0   0   0   0   0   0
      Virial theorem: -V/T =      2.000037
@    MULPOP   Be_a    0.00; 
 -----------------------------------------------------------------------------
   7  Screening settings (-IFTHRS, JTDIIS, DIFDEN, times)  -10    7    T  5.41D-03  6.00D-03
@  7  -14.5728762366       1.11D-06  -7.64D-11     2   0   0   0   0   0   0   0

@ *** DIIS converged in   7 iterations !
@     Converged SCF energy, gradient:    -14.572876236597    1.11D-06
    - total time used in SIRFCK :              0.00 seconds


 *** SCF orbital energy analysis ***

 Only the 20 lowest virtual orbital energies printed in each symmetry.

 Number of electrons :    4
 Orbital occupations :    2    0    0    0    0    0    0    0

 Sym       Hartree-Fock orbital energies

1 Ag     -4.73263941    -0.30927152     0.00892195     0.05403671     0.07499958
          0.07499958     0.23612701     0.24558814     0.24558814     0.66202830
          0.66202830     0.90501713     1.55667600     1.55667600     5.66713215
         26.92066396    26.92066396    32.28879194

2 B3u     0.00244333     0.01588418     0.05993079     0.26421666     0.28388612
          0.28388612     0.77441387     0.77441387     0.98062117     1.80554053
          1.80554053     6.74537392    35.86962232

3 B2u     0.00244333     0.01588418     0.05993079     0.26421666     0.28388612
          0.28388612     0.77441387     0.77441387     0.98062117     1.80554053
          1.80554053     6.74537392    35.86962232

4 B1g     0.07499958     0.24558814     0.66202830     1.55667600    26.92066396


5 B1u     0.00244333     0.01588418     0.05993079     0.26421666     0.28388612
          0.28388612     0.77441387     0.77441387     0.98062117     1.80554053
          1.80554053     6.74537392    35.86962232

6 B2g     0.07499958     0.24558814     0.66202830     1.55667600    26.92066396


7 B3g     0.07499958     0.24558814     0.66202830     1.55667600    26.92066396


8 Au      0.28388612     0.77441387     1.80554053

    E(LUMO) :     0.00244333 au (symmetry 5)
  - E(HOMO) :    -0.30927152 au (symmetry 1)
  ------------------------------------------
    gap     :     0.31171484 au

 --- Writing SIRIFC interface file

 CPU and wall time for SCF :       0.071       0.072


                       .-----------------------------------.
                       | --- Final results from SIRIUS --- |
                       `-----------------------------------'


@    Spin multiplicity:           1
@    Spatial symmetry:            1 ( irrep  Ag  in D2h )
@    Total charge of molecule:    0

@    Final HF energy:             -14.572876236597                 
@    Nuclear repulsion:             0.000000000000
@    Electronic energy:           -14.572876236597

@    Final gradient norm:           0.000001109633

 
     Date and time (Linux)  : Wed Jan 11 15:39:02 2023
     Host name              : cn017                                   

File label for MO orbitals:  11Jan23   FOCKDIIS

 (Only coefficients > 0.0100 are printed.)

 Molecular orbitals for symmetry species 1  (Ag )
 ------------------------------------------------

    Orbital         1        2        3        4        5        6        7
   1 Be_a:1s     0.9913   0.0004   0.0341   0.1524  -0.0000   0.0000  -0.8755
   2 Be_a:1s    -0.0014   0.5639   0.1446   0.2948  -0.0000   0.0000  -2.9038
   3 Be_a:1s     0.0187   0.2277   0.0006  -0.1540   0.0000  -0.0000   0.2223
   4 Be_a:1s     0.0037   0.3158  -0.1868  -1.7367   0.0000   0.0000   4.3025
   5 Be_a:1s     0.0001   0.0001   0.0012   0.0055  -0.0000   0.0000  -0.0387
   6 Be_a:1s    -0.0003   0.0002   0.0177   0.0824  -0.0000   0.0000  -0.4442
   7 Be_a:1s    -0.0014   0.0004   0.8871   3.0339  -0.0000  -0.0000  -2.4231
   8 Be_a:1s     0.0004   0.0019  -1.5578  -1.3838   0.0000  -0.0000   0.7313
  11 Be_a:3d0    0.0000  -0.0000  -0.0000   0.0000   0.0361   0.0000   0.0000
  12 Be_a:3d2+   0.0000   0.0000   0.0000  -0.0000   0.0000   0.0361  -0.0000
  13 Be_a:3d0   -0.0000   0.0000   0.0000  -0.0000  -0.1149  -0.0000  -0.0000
  14 Be_a:3d2+  -0.0000  -0.0000  -0.0000   0.0000  -0.0000  -0.1149   0.0000
  15 Be_a:3d0   -0.0000  -0.0000  -0.0000   0.0000   0.3013   0.0000   0.0000
  16 Be_a:3d2+   0.0000   0.0000   0.0000  -0.0000   0.0000   0.3013  -0.0000
  17 Be_a:3d0    0.0000   0.0000   0.0000  -0.0000  -1.1591  -0.0000  -0.0000
  18 Be_a:3d2+  -0.0000  -0.0000  -0.0000   0.0000  -0.0000  -1.1591   0.0000

    Orbital         8        9       10       11       12
   1 Be_a:1s     0.0000   0.0000  -0.0000   0.0000   2.0142
   2 Be_a:1s     0.0000   0.0000  -0.0000   0.0000   4.9450
   3 Be_a:1s    -0.0000  -0.0000   0.0000  -0.0000  -3.3584
   4 Be_a:1s    -0.0000  -0.0000   0.0000  -0.0000  -3.2294
   5 Be_a:1s     0.0000   0.0000  -0.0000   0.0000   0.0649
   6 Be_a:1s     0.0000   0.0000  -0.0000   0.0000   1.1701
   7 Be_a:1s     0.0000   0.0000  -0.0000   0.0000   1.3119
   8 Be_a:1s    -0.0000  -0.0000   0.0000  -0.0000  -0.3747
  11 Be_a:3d0    0.1515   0.0000  -0.0000  -0.3560   0.0000
  12 Be_a:3d2+  -0.0000   0.1515  -0.3560  -0.0000  -0.0000
  13 Be_a:3d0   -0.3436  -0.0000   0.0000   1.7786  -0.0000
  14 Be_a:3d2+   0.0000  -0.3436   1.7786  -0.0000   0.0000
  15 Be_a:3d0    1.5133   0.0000  -0.0000  -1.2193   0.0000
  16 Be_a:3d2+  -0.0000   1.5133  -1.2193   0.0000  -0.0000
  17 Be_a:3d0   -0.7513  -0.0000   0.0000   0.4140  -0.0000
  18 Be_a:3d2+   0.0000  -0.7513   0.4140  -0.0000   0.0000

 Molecular orbitals for symmetry species 2  (B3u)
 ------------------------------------------------

    Orbital         1        2        3        4        5        6        7
   2 Be_a:2px   -0.0039   0.0428   0.1763   0.1758   0.0000   0.0000   0.0000
   3 Be_a:2px    0.0000   0.0006  -0.0023   0.0169   0.0000   0.0000   0.0000
   4 Be_a:2px   -0.0038   0.0832   0.1318   1.2416  -0.0000   0.0000   0.0000
   5 Be_a:2px   -0.0143   0.0850   0.8741  -1.2607   0.0000   0.0000   0.0000
   6 Be_a:2px    0.0351   1.0069  -0.5383   0.2675   0.0000   0.0000   0.0000
   7 Be_a:2px   -1.0112  -0.3356   0.1301  -0.0602  -0.0000   0.0000   0.0000
   8 Be_a:4f1+   0.0000  -0.0000  -0.0000  -0.0000   0.1279   0.0000   0.0000
   9 Be_a:4f3+   0.0000   0.0000   0.0000   0.0000   0.0000   0.1279  -0.3240
  10 Be_a:4f1+   0.0000  -0.0000  -0.0000  -0.0000  -0.4910   0.0000   0.0000
  11 Be_a:4f3+   0.0000   0.0000   0.0000   0.0000   0.0000  -0.4910   1.7492
  12 Be_a:4f1+   0.0000   0.0000   0.0000   0.0000   1.2882   0.0000   0.0000
  13 Be_a:4f3+   0.0000   0.0000   0.0000   0.0000   0.0000   1.2882  -0.9321

    Orbital         8        9       10
   2 Be_a:2px    0.0000   1.4357   0.0000
   3 Be_a:2px    0.0000  -0.0867   0.0000
   4 Be_a:2px   -0.0000  -1.5816   0.0000
   5 Be_a:2px    0.0000   0.7152   0.0000
   6 Be_a:2px   -0.0000  -0.1207   0.0000
   7 Be_a:2px   -0.0000   0.0273   0.0000
   8 Be_a:4f1+  -0.3240  -0.0000   0.0000
   9 Be_a:4f3+   0.0000   0.0000   1.6489
  10 Be_a:4f1+   1.7492  -0.0000   0.0000
  11 Be_a:4f3+   0.0000   0.0000  -1.4981
  12 Be_a:4f1+  -0.9321   0.0000   0.0000
  13 Be_a:4f3+   0.0000   0.0000   0.5586

 Molecular orbitals for symmetry species 3  (B2u)
 ------------------------------------------------

    Orbital         1        2        3        4        5        6        7
   2 Be_a:2py   -0.0039   0.0428   0.1763   0.1758   0.0000   0.0000  -0.0000
   3 Be_a:2py    0.0000   0.0006  -0.0023   0.0169   0.0000   0.0000  -0.0000
   4 Be_a:2py   -0.0038   0.0832   0.1318   1.2416  -0.0000  -0.0000   0.0000
   5 Be_a:2py   -0.0143   0.0850   0.8741  -1.2607   0.0000   0.0000  -0.0000
   6 Be_a:2py    0.0351   1.0069  -0.5383   0.2675  -0.0000   0.0000   0.0000
   7 Be_a:2py   -1.0112  -0.3356   0.1301  -0.0602   0.0000  -0.0000  -0.0000
   8 Be_a:4f3-   0.0000  -0.0000  -0.0000  -0.0000   0.1279  -0.0000  -0.3240
   9 Be_a:4f1-   0.0000  -0.0000  -0.0000  -0.0000  -0.0000   0.1279   0.0000
  10 Be_a:4f3-  -0.0000   0.0000   0.0000   0.0000  -0.4910   0.0000   1.7492
  11 Be_a:4f1-   0.0000  -0.0000  -0.0000  -0.0000  -0.0000  -0.4910   0.0000
  12 Be_a:4f3-   0.0000  -0.0000  -0.0000  -0.0000   1.2882  -0.0000  -0.9321
  13 Be_a:4f1-   0.0000   0.0000   0.0000   0.0000   0.0000   1.2882  -0.0000

    Orbital         8        9       10
   2 Be_a:2py    0.0000   1.4357   0.0000
   3 Be_a:2py    0.0000  -0.0867   0.0000
   4 Be_a:2py   -0.0000  -1.5816  -0.0000
   5 Be_a:2py    0.0000   0.7152   0.0000
   6 Be_a:2py   -0.0000  -0.1207  -0.0000
   7 Be_a:2py   -0.0000   0.0273   0.0000
   8 Be_a:4f3-  -0.0000  -0.0000   1.6489
   9 Be_a:4f1-  -0.3240  -0.0000  -0.0000
  10 Be_a:4f3-   0.0000   0.0000  -1.4981
  11 Be_a:4f1-   1.7492  -0.0000   0.0000
  12 Be_a:4f3-  -0.0000  -0.0000   0.5586
  13 Be_a:4f1-  -0.9321   0.0000  -0.0000

 Molecular orbitals for symmetry species 4  (B1g)
 ------------------------------------------------

    Orbital         1        2        3        4        5
   1 Be_a:3d2-  -0.0000   0.0002   0.0010  -0.0037   1.0011
   2 Be_a:3d2-   0.0361   0.1515  -0.3560  -2.0945  -0.1028
   3 Be_a:3d2-  -0.1149  -0.3436   1.7786   2.1148   0.0952
   4 Be_a:3d2-   0.3013   1.5133  -1.2193  -0.7972  -0.0378
   5 Be_a:3d2-  -1.1591  -0.7513   0.4140   0.2433   0.0125

 Molecular orbitals for symmetry species 5  (B1u)
 ------------------------------------------------

    Orbital         1        2        3        4        5        6        7
   2 Be_a:2pz   -0.0039   0.0428   0.1763   0.1758   0.0000  -0.0000   0.0000
   3 Be_a:2pz    0.0000   0.0006  -0.0023   0.0169   0.0000  -0.0000   0.0000
   4 Be_a:2pz   -0.0038   0.0832   0.1318   1.2416   0.0000   0.0000  -0.0000
   5 Be_a:2pz   -0.0143   0.0850   0.8741  -1.2607   0.0000   0.0000   0.0000
   6 Be_a:2pz    0.0351   1.0069  -0.5383   0.2675   0.0000   0.0000  -0.0000
   7 Be_a:2pz   -1.0112  -0.3356   0.1301  -0.0602   0.0000  -0.0000   0.0000
   8 Be_a:4f0   -0.0000   0.0000   0.0000   0.0000   0.0000   0.1279  -0.3240
   9 Be_a:4f2+   0.0000   0.0000   0.0000   0.0000   0.1279   0.0000   0.0000
  10 Be_a:4f0    0.0000  -0.0000  -0.0000  -0.0000   0.0000  -0.4910   1.7492
  11 Be_a:4f2+   0.0000   0.0000   0.0000   0.0000  -0.4910   0.0000   0.0000
  12 Be_a:4f0   -0.0000   0.0000   0.0000   0.0000   0.0000   1.2882  -0.9321
  13 Be_a:4f2+   0.0000   0.0000   0.0000   0.0000   1.2882   0.0000   0.0000

    Orbital         8        9       10
   2 Be_a:2pz    0.0000   1.4357  -0.0000
   3 Be_a:2pz    0.0000  -0.0867  -0.0000
   4 Be_a:2pz    0.0000  -1.5816   0.0000
   5 Be_a:2pz    0.0000   0.7152  -0.0000
   6 Be_a:2pz    0.0000  -0.1207   0.0000
   7 Be_a:2pz    0.0000   0.0273  -0.0000
   8 Be_a:4f0    0.0000   0.0000   1.6489
   9 Be_a:4f2+  -0.3240   0.0000   0.0000
  10 Be_a:4f0    0.0000  -0.0000  -1.4981
  11 Be_a:4f2+   1.7492   0.0000   0.0000
  12 Be_a:4f0    0.0000   0.0000   0.5586
  13 Be_a:4f2+  -0.9321   0.0000   0.0000

 Molecular orbitals for symmetry species 6  (B2g)
 ------------------------------------------------

    Orbital         1        2        3        4        5
   1 Be_a:3d1+  -0.0000   0.0002   0.0010  -0.0037   1.0011
   2 Be_a:3d1+   0.0361   0.1515  -0.3560  -2.0945  -0.1028
   3 Be_a:3d1+  -0.1149  -0.3436   1.7786   2.1148   0.0952
   4 Be_a:3d1+   0.3013   1.5133  -1.2193  -0.7972  -0.0378
   5 Be_a:3d1+  -1.1591  -0.7513   0.4140   0.2433   0.0125

 Molecular orbitals for symmetry species 7  (B3g)
 ------------------------------------------------

    Orbital         1        2        3        4        5
   1 Be_a:3d1-  -0.0000   0.0002   0.0010   0.0037   1.0011
   2 Be_a:3d1-   0.0361   0.1515  -0.3560   2.0945  -0.1028
   3 Be_a:3d1-  -0.1149  -0.3436   1.7786  -2.1148   0.0952
   4 Be_a:3d1-   0.3013   1.5133  -1.2193   0.7972  -0.0378
   5 Be_a:3d1-  -1.1591  -0.7513   0.4140  -0.2433   0.0125

 Molecular orbitals for symmetry species 8  (Au )
 ------------------------------------------------

    Orbital         1        2        3
   1 Be_a:4f2-   0.1279  -0.3240   1.6489
   2 Be_a:4f2-  -0.4910   1.7492  -1.4981
   3 Be_a:4f2-   1.2882  -0.9321   0.5586

  Total CPU  time used in SIRIUS :   0.08 seconds
  Total wall time used in SIRIUS :   0.08 seconds

 
     Date and time (Linux)  : Wed Jan 11 15:39:02 2023
     Host name              : cn017                                   


                     .---------------------------------------.
                     | End of Wave Function Section (SIRIUS) |
                     `---------------------------------------'



                 .------------------------------------------------.
                 | Starting in Dynamic Property Section (RESPONS) |
                 `------------------------------------------------'


 ----------------------------------------------------------------------------------------
  RESPONSE  -  an MCSCF, MC-srDFT, DFT, SOPPA and SOPPA-srDFT response property program
 ----------------------------------------------------------------------------------------


 -------- OUTPUT FROM RESPONSE INPUT PROCESSING --------




 Linear Response calculation
 ---------------------------

 Print level                                    : IPRLR  =   2
 Maximum number of iterations                   : MAXITL =  60
 Threshold for relative convergence             : THCLR  = 1.000D-03
 Maximum iterations in optimal orbital algorithm: MAXITO =   5

  9 B-frequencies  0.000000D+00  1.111631D-02  2.223262D-02  3.334894D-02  4.446525D-02
  5.558156D-02  6.669787D-02  7.781419D-02  8.893050D-02

    1 second order properties calculated with symmetry no.    2 and labels:

          XDIPLEN 

    1 second order properties calculated with symmetry no.    3 and labels:

          YDIPLEN 

    1 second order properties calculated with symmetry no.    5 and labels:

          ZDIPLEN 


   SCF energy         :      -14.572876236596567
 -- inactive part     :      -14.572876236596567
 -- nuclear repulsion :        0.000000000000000


                     ***************************************
                     *** RHF response calculation (TDHF) ***
                     ***************************************

 ----------------------------------------------------------------
 ----- Linear response calculation
 ----- Symmetry of excitation/property operator(s)    2  ( B3u)
 ----------------------------------------------------------------

 Number of excitations of this symmetry            0
 Number of response properties of this symmetry    1
 Number of C6/C8 properties of this symmetry       0


 Perturbation symmetry.     KSYMOP:           2
 Perturbation spin symmetry.TRPLET:           F
 Orbital variables.         KZWOPT:          26
 Configuration variables.   KZCONF:           0
 Total number of variables. KZVAR :          26


 RSPLR -- linear response calculation for symmetry 2  ( B3u)
 RSPLR -- operator label : XDIPLEN 
 RSPLR -- operator spin  :   0
 RSPLR -- frequencies    :     0.000000  0.011116  0.022233  0.033349  0.044465
                               0.055582  0.066698  0.077814  0.088930



 ---  SOLVING SETS OF LINEAR EQUATIONS FOR LINEAR RESPONSE PROPERTIES ---

 Operator symmetry = 2  ( B3u); triplet =   F

RSPORT:    2 out of    9 new trial vectors linear dependent

 ** RSPCTL MICROITERATION NUMBER    1

       No.  Residual tot.,    conf., and orb.    Bnorm      Frequency 
      ----------------------------------------------------------------
         1    1.74533D-01  0.00D+00  1.75D-01  9.79D+00    0.00000D+00
         2    1.75817D-01  0.00D+00  1.76D-01  9.86D+00    1.11163D-02
         3    1.79719D-01  0.00D+00  1.80D-01  1.01D+01    2.22326D-02
         4    1.86401D-01  0.00D+00  1.86D-01  1.05D+01    3.33489D-02
         5    1.96156D-01  0.00D+00  1.96D-01  1.10D+01    4.44652D-02
         6    2.09455D-01  0.00D+00  2.09D-01  1.17D+01    5.55816D-02
         7    2.27020D-01  0.00D+00  2.27D-01  1.27D+01    6.66979D-02
         8    2.49959D-01  0.00D+00  2.50D-01  1.40D+01    7.78142D-02
         9    2.79993D-01  0.00D+00  2.80D-01  1.57D+01    8.89305D-02
RSPORT:    5 out of    9 new trial vectors linear dependent

 ** RSPCTL MICROITERATION NUMBER    2

       No.  Residual tot.,    conf., and orb.    Bnorm      Frequency 
      ----------------------------------------------------------------
         1    4.29052D-03  0.00D+00  4.29D-03  9.79D+00    0.00000D+00
         2    4.31068D-03  0.00D+00  4.31D-03  9.86D+00    1.11163D-02
         3    4.37214D-03  0.00D+00  4.37D-03  1.01D+01    2.22326D-02
         4    4.47794D-03  0.00D+00  4.48D-03  1.05D+01    3.33489D-02
         5    4.63357D-03  0.00D+00  4.63D-03  1.10D+01    4.44652D-02
         6    4.84772D-03  0.00D+00  4.85D-03  1.17D+01    5.55816D-02
         7    5.13359D-03  0.00D+00  5.13D-03  1.27D+01    6.66979D-02
         8    5.51111D-03  0.00D+00  5.51D-03  1.40D+01    7.78142D-02
         9    6.01099D-03  0.00D+00  6.01D-03  1.57D+01    8.89305D-02

 *** THE REQUESTED    9 SOLUTION VECTORS CONVERGED

 Convergence of RSP solution vectors, threshold = 1.00D-03
 ---------------------------------------------------------------
 (dimension of paired reduced space:   22)
 RSP solution vector no.    1; norm of residual   4.38D-04
 RSP solution vector no.    2; norm of residual   4.37D-04
 RSP solution vector no.    3; norm of residual   4.34D-04
 RSP solution vector no.    4; norm of residual   4.28D-04
 RSP solution vector no.    5; norm of residual   4.21D-04
 RSP solution vector no.    6; norm of residual   4.13D-04
 RSP solution vector no.    7; norm of residual   4.04D-04
 RSP solution vector no.    8; norm of residual   3.94D-04
 RSP solution vector no.    9; norm of residual   3.84D-04

 *** RSPCTL MICROITERATIONS CONVERGED


           Final output of second order properties from linear response
           ------------------------------------------------------------


@ Spin symmetry of operators: singlet

 Note that minus the linear response function: - << A; B >>(omega) is printed.
 The results are of quadratic accuracy using Sellers formula.

@ FREQUENCY INDEPENDENT SECOND ORDER PROPERTIES

@ -<< XDIPLEN  ; XDIPLEN  >> =  4.548712271097E+01

@ FREQUENCY DEPENDENT SECOND ORDER PROPERTIES WITH FREQUENCY :

@    a.u.:  1.1116312D-02
@    cm-1:  2.4397486D+03
@    eV  :  3.0249025D-01
@  kJ/mol:  2.9185874D+01
@    nm  :  4.0987830D+03

@ -<< XDIPLEN  ; XDIPLEN  >> =  4.566259336305E+01

@ FREQUENCY DEPENDENT SECOND ORDER PROPERTIES WITH FREQUENCY :

@    a.u.:  2.2232625D-02
@    cm-1:  4.8794971D+03
@    eV  :  6.0498050D-01
@  kJ/mol:  5.8371748D+01
@    nm  :  2.0493915D+03

@ -<< XDIPLEN  ; XDIPLEN  >> =  4.619735677156E+01

@ FREQUENCY DEPENDENT SECOND ORDER PROPERTIES WITH FREQUENCY :

@    a.u.:  3.3348937D-02
@    cm-1:  7.3192457D+03
@    eV  :  9.0747075D-01
@  kJ/mol:  8.7557622D+01
@    nm  :  1.3662610D+03

@ -<< XDIPLEN  ; XDIPLEN  >> =  4.711748334114E+01

@ FREQUENCY DEPENDENT SECOND ORDER PROPERTIES WITH FREQUENCY :

@    a.u.:  4.4465250D-02
@    cm-1:  9.7589943D+03
@    eV  :  1.2099610D+00
@  kJ/mol:  1.1674350D+02
@    nm  :  1.0246958D+03

@ -<< XDIPLEN  ; XDIPLEN  >> =  4.847004822091E+01

@ FREQUENCY DEPENDENT SECOND ORDER PROPERTIES WITH FREQUENCY :

@    a.u.:  5.5581563D-02
@    cm-1:  1.2198743D+04
@    eV  :  1.5124513D+00
@  kJ/mol:  1.4592937D+02
@    nm  :  8.1975660D+02

@ -<< XDIPLEN  ; XDIPLEN  >> =  5.032949263395E+01

@ FREQUENCY DEPENDENT SECOND ORDER PROPERTIES WITH FREQUENCY :

@    a.u.:  6.6697875D-02
@    cm-1:  1.4638491D+04
@    eV  :  1.8149415D+00
@  kJ/mol:  1.7511524D+02
@    nm  :  6.8313050D+02

@ -<< XDIPLEN  ; XDIPLEN  >> =  5.280876910036E+01

@ FREQUENCY DEPENDENT SECOND ORDER PROPERTIES WITH FREQUENCY :

@    a.u.:  7.7814187D-02
@    cm-1:  1.7078240D+04
@    eV  :  2.1174318D+00
@  kJ/mol:  2.0430112D+02
@    nm  :  5.8554043D+02

@ -<< XDIPLEN  ; XDIPLEN  >> =  5.607867438684E+01

@ FREQUENCY DEPENDENT SECOND ORDER PROPERTIES WITH FREQUENCY :

@    a.u.:  8.8930500D-02
@    cm-1:  1.9517989D+04
@    eV  :  2.4199220D+00
@  kJ/mol:  2.3348699D+02
@    nm  :  5.1234788D+02

@ -<< XDIPLEN  ; XDIPLEN  >> =  6.040230857067E+01


 Time used in linear response calculation is      0.13 CPU seconds for symmetry 2
 ----------------------------------------------------------------
 ----- Linear response calculation
 ----- Symmetry of excitation/property operator(s)    3  ( B2u)
 ----------------------------------------------------------------

 Number of excitations of this symmetry            0
 Number of response properties of this symmetry    1
 Number of C6/C8 properties of this symmetry       0


 Perturbation symmetry.     KSYMOP:           3
 Perturbation spin symmetry.TRPLET:           F
 Orbital variables.         KZWOPT:          26
 Configuration variables.   KZCONF:           0
 Total number of variables. KZVAR :          26


 RSPLR -- linear response calculation for symmetry 3  ( B2u)
 RSPLR -- operator label : YDIPLEN 
 RSPLR -- operator spin  :   0
 RSPLR -- frequencies    :     0.000000  0.011116  0.022233  0.033349  0.044465
                               0.055582  0.066698  0.077814  0.088930



 ---  SOLVING SETS OF LINEAR EQUATIONS FOR LINEAR RESPONSE PROPERTIES ---

 Operator symmetry = 3  ( B2u); triplet =   F

RSPORT:    1 out of    9 new trial vectors linear dependent

 ** RSPCTL MICROITERATION NUMBER    1

       No.  Residual tot.,    conf., and orb.    Bnorm      Frequency 
      ----------------------------------------------------------------
         1    1.19802D-01  0.00D+00  1.20D-01  9.79D+00    0.00000D+00
         2    1.20567D-01  0.00D+00  1.21D-01  9.86D+00    1.11163D-02
         3    1.22898D-01  0.00D+00  1.23D-01  1.01D+01    2.22326D-02
         4    1.26900D-01  0.00D+00  1.27D-01  1.05D+01    3.33489D-02
         5    1.32769D-01  0.00D+00  1.33D-01  1.10D+01    4.44652D-02
         6    1.40811D-01  0.00D+00  1.41D-01  1.17D+01    5.55816D-02
         7    1.51496D-01  0.00D+00  1.51D-01  1.27D+01    6.66979D-02
         8    1.65536D-01  0.00D+00  1.66D-01  1.40D+01    7.78142D-02
         9    1.84030D-01  0.00D+00  1.84D-01  1.57D+01    8.89305D-02
RSPORT:    3 out of    9 new trial vectors linear dependent

 ** RSPCTL MICROITERATION NUMBER    2

       No.  Residual tot.,    conf., and orb.    Bnorm      Frequency 
      ----------------------------------------------------------------
         1    3.26734D-15  0.00D+00  3.27D-15  9.79D+00    0.00000D+00
         2    3.73552D-15  0.00D+00  3.74D-15  9.86D+00    1.11163D-02
         3    3.79766D-15  0.00D+00  3.80D-15  1.01D+01    2.22326D-02
         4    4.34196D-15  0.00D+00  4.34D-15  1.05D+01    3.33489D-02
         5    4.86969D-15  0.00D+00  4.87D-15  1.10D+01    4.44652D-02
         6    5.55738D-15  0.00D+00  5.56D-15  1.17D+01    5.55816D-02
         7    7.31022D-15  0.00D+00  7.31D-15  1.27D+01    6.66979D-02
         8    7.86455D-15  0.00D+00  7.86D-15  1.40D+01    7.78142D-02
         9    8.77738D-15  0.00D+00  8.78D-15  1.57D+01    8.89305D-02

 *** THE REQUESTED    9 SOLUTION VECTORS CONVERGED

 Convergence of RSP solution vectors, threshold = 1.00D-03
 ---------------------------------------------------------------
 (dimension of paired reduced space:   28)
 RSP solution vector no.    1; norm of residual   3.34D-16
 RSP solution vector no.    2; norm of residual   3.79D-16
 RSP solution vector no.    3; norm of residual   3.77D-16
 RSP solution vector no.    4; norm of residual   4.15D-16
 RSP solution vector no.    5; norm of residual   4.43D-16
 RSP solution vector no.    6; norm of residual   4.73D-16
 RSP solution vector no.    7; norm of residual   5.75D-16
 RSP solution vector no.    8; norm of residual   5.62D-16
 RSP solution vector no.    9; norm of residual   5.61D-16

 *** RSPCTL MICROITERATIONS CONVERGED


           Final output of second order properties from linear response
           ------------------------------------------------------------


@ Spin symmetry of operators: singlet

 Note that minus the linear response function: - << A; B >>(omega) is printed.
 The results are of quadratic accuracy using Sellers formula.

@ FREQUENCY INDEPENDENT SECOND ORDER PROPERTIES

@ -<< YDIPLEN  ; YDIPLEN  >> =  4.548712301653E+01

@ FREQUENCY DEPENDENT SECOND ORDER PROPERTIES WITH FREQUENCY :

@    a.u.:  1.1116312D-02
@    cm-1:  2.4397486D+03
@    eV  :  3.0249025D-01
@  kJ/mol:  2.9185874D+01
@    nm  :  4.0987830D+03

@ -<< YDIPLEN  ; YDIPLEN  >> =  4.566259367150E+01

@ FREQUENCY DEPENDENT SECOND ORDER PROPERTIES WITH FREQUENCY :

@    a.u.:  2.2232625D-02
@    cm-1:  4.8794971D+03
@    eV  :  6.0498050D-01
@  kJ/mol:  5.8371748D+01
@    nm  :  2.0493915D+03

@ -<< YDIPLEN  ; YDIPLEN  >> =  4.619735708886E+01

@ FREQUENCY DEPENDENT SECOND ORDER PROPERTIES WITH FREQUENCY :

@    a.u.:  3.3348937D-02
@    cm-1:  7.3192457D+03
@    eV  :  9.0747075D-01
@  kJ/mol:  8.7557622D+01
@    nm  :  1.3662610D+03

@ -<< YDIPLEN  ; YDIPLEN  >> =  4.711748367398E+01

@ FREQUENCY DEPENDENT SECOND ORDER PROPERTIES WITH FREQUENCY :

@    a.u.:  4.4465250D-02
@    cm-1:  9.7589943D+03
@    eV  :  1.2099610D+00
@  kJ/mol:  1.1674350D+02
@    nm  :  1.0246958D+03

@ -<< YDIPLEN  ; YDIPLEN  >> =  4.847004857728E+01

@ FREQUENCY DEPENDENT SECOND ORDER PROPERTIES WITH FREQUENCY :

@    a.u.:  5.5581563D-02
@    cm-1:  1.2198743D+04
@    eV  :  1.5124513D+00
@  kJ/mol:  1.4592937D+02
@    nm  :  8.1975660D+02

@ -<< YDIPLEN  ; YDIPLEN  >> =  5.032949302402E+01

@ FREQUENCY DEPENDENT SECOND ORDER PROPERTIES WITH FREQUENCY :

@    a.u.:  6.6697875D-02
@    cm-1:  1.4638491D+04
@    eV  :  1.8149415D+00
@  kJ/mol:  1.7511524D+02
@    nm  :  6.8313050D+02

@ -<< YDIPLEN  ; YDIPLEN  >> =  5.280876953778E+01

@ FREQUENCY DEPENDENT SECOND ORDER PROPERTIES WITH FREQUENCY :

@    a.u.:  7.7814187D-02
@    cm-1:  1.7078240D+04
@    eV  :  2.1174318D+00
@  kJ/mol:  2.0430112D+02
@    nm  :  5.8554043D+02

@ -<< YDIPLEN  ; YDIPLEN  >> =  5.607867489096E+01

@ FREQUENCY DEPENDENT SECOND ORDER PROPERTIES WITH FREQUENCY :

@    a.u.:  8.8930500D-02
@    cm-1:  1.9517989D+04
@    eV  :  2.4199220D+00
@  kJ/mol:  2.3348699D+02
@    nm  :  5.1234788D+02

@ -<< YDIPLEN  ; YDIPLEN  >> =  6.040230917038E+01


 Time used in linear response calculation is      0.15 CPU seconds for symmetry 3
 ----------------------------------------------------------------
 ----- Linear response calculation
 ----- Symmetry of excitation/property operator(s)    5  ( B1u)
 ----------------------------------------------------------------

 Number of excitations of this symmetry            0
 Number of response properties of this symmetry    1
 Number of C6/C8 properties of this symmetry       0


 Perturbation symmetry.     KSYMOP:           5
 Perturbation spin symmetry.TRPLET:           F
 Orbital variables.         KZWOPT:          26
 Configuration variables.   KZCONF:           0
 Total number of variables. KZVAR :          26


 RSPLR -- linear response calculation for symmetry 5  ( B1u)
 RSPLR -- operator label : ZDIPLEN 
 RSPLR -- operator spin  :   0
 RSPLR -- frequencies    :     0.000000  0.011116  0.022233  0.033349  0.044465
                               0.055582  0.066698  0.077814  0.088930



 ---  SOLVING SETS OF LINEAR EQUATIONS FOR LINEAR RESPONSE PROPERTIES ---

 Operator symmetry = 5  ( B1u); triplet =   F

RSPORT:    1 out of    9 new trial vectors linear dependent

 ** RSPCTL MICROITERATION NUMBER    1

       No.  Residual tot.,    conf., and orb.    Bnorm      Frequency 
      ----------------------------------------------------------------
         1    1.11188D-01  0.00D+00  1.11D-01  9.79D+00    0.00000D+00
         2    1.12198D-01  0.00D+00  1.12D-01  9.86D+00    1.11163D-02
         3    1.15260D-01  0.00D+00  1.15D-01  1.01D+01    2.22326D-02
         4    1.20479D-01  0.00D+00  1.20D-01  1.05D+01    3.33489D-02
         5    1.28052D-01  0.00D+00  1.28D-01  1.10D+01    4.44652D-02
         6    1.38304D-01  0.00D+00  1.38D-01  1.17D+01    5.55816D-02
         7    1.51746D-01  0.00D+00  1.52D-01  1.27D+01    6.66979D-02
         8    1.69172D-01  0.00D+00  1.69D-01  1.40D+01    7.78142D-02
         9    1.91836D-01  0.00D+00  1.92D-01  1.57D+01    8.89305D-02
RSPORT:    3 out of    9 new trial vectors linear dependent

 ** RSPCTL MICROITERATION NUMBER    2

       No.  Residual tot.,    conf., and orb.    Bnorm      Frequency 
      ----------------------------------------------------------------
         1    3.63008D-15  0.00D+00  3.63D-15  9.79D+00    0.00000D+00
         2    3.65985D-15  0.00D+00  3.66D-15  9.86D+00    1.11163D-02
         3    4.49234D-15  0.00D+00  4.49D-15  1.01D+01    2.22326D-02
         4    4.66428D-15  0.00D+00  4.66D-15  1.05D+01    3.33489D-02
         5    5.86453D-15  0.00D+00  5.86D-15  1.10D+01    4.44652D-02
         6    5.77109D-15  0.00D+00  5.77D-15  1.17D+01    5.55816D-02
         7    7.51305D-15  0.00D+00  7.51D-15  1.27D+01    6.66979D-02
         8    7.63478D-15  0.00D+00  7.63D-15  1.40D+01    7.78142D-02
         9    9.67397D-15  0.00D+00  9.67D-15  1.57D+01    8.89305D-02

 *** THE REQUESTED    9 SOLUTION VECTORS CONVERGED

 Convergence of RSP solution vectors, threshold = 1.00D-03
 ---------------------------------------------------------------
 (dimension of paired reduced space:   28)
 RSP solution vector no.    1; norm of residual   3.71D-16
 RSP solution vector no.    2; norm of residual   3.71D-16
 RSP solution vector no.    3; norm of residual   4.46D-16
 RSP solution vector no.    4; norm of residual   4.46D-16
 RSP solution vector no.    5; norm of residual   5.33D-16
 RSP solution vector no.    6; norm of residual   4.92D-16
 RSP solution vector no.    7; norm of residual   5.91D-16
 RSP solution vector no.    8; norm of residual   5.46D-16
 RSP solution vector no.    9; norm of residual   6.18D-16

 *** RSPCTL MICROITERATIONS CONVERGED


           Final output of second order properties from linear response
           ------------------------------------------------------------


@ Spin symmetry of operators: singlet

 Note that minus the linear response function: - << A; B >>(omega) is printed.
 The results are of quadratic accuracy using Sellers formula.

@ FREQUENCY INDEPENDENT SECOND ORDER PROPERTIES

@ -<< ZDIPLEN  ; ZDIPLEN  >> =  4.548712301653E+01

@ FREQUENCY DEPENDENT SECOND ORDER PROPERTIES WITH FREQUENCY :

@    a.u.:  1.1116312D-02
@    cm-1:  2.4397486D+03
@    eV  :  3.0249025D-01
@  kJ/mol:  2.9185874D+01
@    nm  :  4.0987830D+03

@ -<< ZDIPLEN  ; ZDIPLEN  >> =  4.566259367150E+01

@ FREQUENCY DEPENDENT SECOND ORDER PROPERTIES WITH FREQUENCY :

@    a.u.:  2.2232625D-02
@    cm-1:  4.8794971D+03
@    eV  :  6.0498050D-01
@  kJ/mol:  5.8371748D+01
@    nm  :  2.0493915D+03

@ -<< ZDIPLEN  ; ZDIPLEN  >> =  4.619735708886E+01

@ FREQUENCY DEPENDENT SECOND ORDER PROPERTIES WITH FREQUENCY :

@    a.u.:  3.3348937D-02
@    cm-1:  7.3192457D+03
@    eV  :  9.0747075D-01
@  kJ/mol:  8.7557622D+01
@    nm  :  1.3662610D+03

@ -<< ZDIPLEN  ; ZDIPLEN  >> =  4.711748367398E+01

@ FREQUENCY DEPENDENT SECOND ORDER PROPERTIES WITH FREQUENCY :

@    a.u.:  4.4465250D-02
@    cm-1:  9.7589943D+03
@    eV  :  1.2099610D+00
@  kJ/mol:  1.1674350D+02
@    nm  :  1.0246958D+03

@ -<< ZDIPLEN  ; ZDIPLEN  >> =  4.847004857728E+01

@ FREQUENCY DEPENDENT SECOND ORDER PROPERTIES WITH FREQUENCY :

@    a.u.:  5.5581563D-02
@    cm-1:  1.2198743D+04
@    eV  :  1.5124513D+00
@  kJ/mol:  1.4592937D+02
@    nm  :  8.1975660D+02

@ -<< ZDIPLEN  ; ZDIPLEN  >> =  5.032949302402E+01

@ FREQUENCY DEPENDENT SECOND ORDER PROPERTIES WITH FREQUENCY :

@    a.u.:  6.6697875D-02
@    cm-1:  1.4638491D+04
@    eV  :  1.8149415D+00
@  kJ/mol:  1.7511524D+02
@    nm  :  6.8313050D+02

@ -<< ZDIPLEN  ; ZDIPLEN  >> =  5.280876953778E+01

@ FREQUENCY DEPENDENT SECOND ORDER PROPERTIES WITH FREQUENCY :

@    a.u.:  7.7814187D-02
@    cm-1:  1.7078240D+04
@    eV  :  2.1174318D+00
@  kJ/mol:  2.0430112D+02
@    nm  :  5.8554043D+02

@ -<< ZDIPLEN  ; ZDIPLEN  >> =  5.607867489096E+01

@ FREQUENCY DEPENDENT SECOND ORDER PROPERTIES WITH FREQUENCY :

@    a.u.:  8.8930500D-02
@    cm-1:  1.9517989D+04
@    eV  :  2.4199220D+00
@  kJ/mol:  2.3348699D+02
@    nm  :  5.1234788D+02

@ -<< ZDIPLEN  ; ZDIPLEN  >> =  6.040230917038E+01


 Time used in linear response calculation is      0.15 CPU seconds for symmetry 5

  Total CPU  time used in RESPONSE:   0.43 seconds
  Total wall time used in RESPONSE:   0.45 seconds


                   .-------------------------------------------.
                   | End of Dynamic Property Section (RESPONS) |
                   `-------------------------------------------'

  Total CPU  time used in DALTON:   0.61 seconds
  Total wall time used in DALTON:   0.65 seconds

 
     Date and time (Linux)  : Wed Jan 11 15:39:03 2023
     Host name              : cn017                                   
